  ABINIT 
  
  Give name for formatted input file: 
tbase2_2.in
  Give name for formatted output file:
tbase2_2.out
  Give root name for generic input files:
tbase2_xi
  Give root name for generic output files:
tbase2_xo
  Give root name for generic temporary files:
tbase2_x

 herald :  WARNING -
  The starting date is more than 3 years after the initial release
  of this version of ABINIT, namely Aug 2013.
  This version of ABINIT is not supported anymore.
  Action : please, switch to a more recent version of ABINIT.

.Version 7.4.3 of ABINIT 
.(MPI version, prepared for a i686_cygwin_gnu4.7 computer) 

.Copyright (C) 1998-2013 ABINIT group . 
 ABINIT comes with ABSOLUTELY NO WARRANTY.
 It is free software, and you are welcome to redistribute it
 under certain conditions (GNU General Public License,
 see ~abinit/COPYING or http://www.gnu.org/copyleft/gpl.txt).

 ABINIT is a project of the Universite Catholique de Louvain,
 Corning Inc. and other collaborators, see ~abinit/doc/developers/contributors.txt .
 Please read ~abinit/doc/users/acknowledgments.html for suggested
 acknowledgments of the ABINIT effort.
 For more information, see http://www.abinit.org .

.Starting date : Mon  4 Jun 2018.
- ( at 12h39 )
  

 herald :  WARNING -
  The starting date is more than 3 years after the initial release
  of this version of ABINIT, namely Aug 2013.
  This version of ABINIT is not supported anymore.
  Action : please, switch to a more recent version of ABINIT.

 herald :  WARNING -
  The starting date is more than 3 years after the initial release
  of this version of ABINIT, namely Aug 2013.
  This version of ABINIT is not supported anymore.
  Action : please, switch to a more recent version of ABINIT.

 ++++++++++++++++++++++++++++++++++++++++++++++++++++++++++++++++++++++++++++++

 === Build Information === 
  Version       : 7.4.3
  Build target  : i686_cygwin_gnu4.7
  Build date    : 20131019

 === Compiler Suite === 
  C compiler       : gnu
  CFLAGS           : -mfpmath=sse -msse2 -O2 -Wstrict-aliasing=2 -static
  C++ compiler     : gnu4.7
  CXXFLAGS         : -mfpmath=sse -msse2 -O2 -Wstrict-aliasing=2 -static
  Fortran compiler : gnu4.7
  FCFLAGS          : -mfpmath=sse -msse2 -O2 -ffree-line-length-none -Wstrict-aliasing=2 -static
  FC_LDFLAGS       : 

 === Optimizations === 
  Debug level        : no
  Optimization level : standard
  Architecture       : _

 === MPI === 
  Parallel build : yes
  Parallel I/O   : no
  Time tracing   : no
  GPU support    : no

 === Connectors / Fallbacks === 
  Connectors on : yes
  Fallbacks on  : yes
  DFT flavor    : libxc+atompaw+bigdft+wannier90
  FFT flavor    : none
  LINALG flavor : netlib
  MATH flavor   : none
  TIMER flavor  : abinit
  TRIO flavor   : netcdf+etsf_io

 === Experimental features === 
  Bindings            : no
  Exports             : no
  GW double-precision : yes

 === Bazaar branch information === 
  Branch ID : xavier.gonze@uclouvain.be-20131019063522-8wupmx7xtg5stywd
  Revision  : 490
  Committed : 0

 ++++++++++++++++++++++++++++++++++++++++++++++++++++++++++++++++++++++++++++++


 ++++++++++++++++++++++++++++++++++++++++++++++++++++++++++++++++++++++++++++++
 Default optimizations:
   --- None ---


 ++++++++++++++++++++++++++++++++++++++++++++++++++++++++++++++++++++++++++++++


 ++++++++++++++++++++++++++++++++++++++++++++++++++++++++++++++++++++++++++++++
 CPP options activated during the build:

                    CC_GNU                   CXX_GNU                    FC_GNU

           HAVE_BZR_BRANCH          HAVE_DFT_ATOMPAW           HAVE_DFT_BIGDFT

            HAVE_DFT_LIBXC        HAVE_DFT_WANNIER90 HAVE_FC_ALLOCATABLE_DT...

      HAVE_FC_COMMAND_LINE        HAVE_FC_CONTIGUOUS           HAVE_FC_CPUTIME

              HAVE_FC_EXIT             HAVE_FC_FLUSH             HAVE_FC_GAMMA

            HAVE_FC_GETENV          HAVE_FC_INT_QUAD             HAVE_FC_IOMSG

     HAVE_FC_ISO_C_BINDING        HAVE_FC_LONG_LINES              HAVE_FC_NULL

         HAVE_FC_STREAM_IO          HAVE_FORTRAN2003               HAVE_LINALG

        HAVE_LINALG_SERIAL                  HAVE_MPI                 HAVE_MPI1

 HAVE_MPI_TYPE_CREATE_S...           HAVE_OS_WINDOWS                HAVE_TIMER

         HAVE_TIMER_ABINIT            HAVE_TIMER_MPI         HAVE_TIMER_SERIAL

         HAVE_TRIO_ETSF_IO          HAVE_TRIO_NETCDF
 ++++++++++++++++++++++++++++++++++++++++++++++++++++++++++++++++++++++++++++++

- input  file    -> tbase2_2.in
- output file    -> tbase2_2.out
- root for input  files -> tbase2_xi
- root for output files -> tbase2_xo

-instrng :    91 lines of input have been read from file tbase2_2.in


 iofn2 : Please give name of formatted atomic psp file
 iofn2 : for atom type   1 , psp file is 01h.pspgth
  read the values zionpsp=  1.0 , pspcod=   2 , lmax=   0

 inpspheads : deduce mpsang  =   1, n1xccc  =   0.

 invars1m : enter jdtset=    11
 invars1 : treat image number     1

 symlatt : the Bravais lattice is cP (primitive cubic)
  xcart  is defined in input file
 ingeo : takes atomic coordinates from input array xcart

 symlatt : the Bravais lattice is cP (primitive cubic)

 symlatt : the Bravais lattice is cP (primitive cubic)

 symbrav : COMMENT -
  The Bravais lattice determined only from the primitive
  vectors, bravais(1)=  7, is more symmetric
  than the real one, iholohedry=  4, obtained by taking into
  account the atomic positions. Start deforming the primitive vector set.

 symlatt : the Bravais lattice is tP (primitive tetragonal)
 symspgr : the symmetry operation no.   1 is the identity
 symspgr : the symmetry operation no.   2 is an inversion
 symaxes : the symmetry operation no.   3 is a 2-axis
 symplanes : the symmetry operation no.   4 is a mirror plane
 symaxes : the symmetry operation no.   5 is a 2-axis
 symplanes : the symmetry operation no.   6 is a mirror plane
 symaxes : the symmetry operation no.   7 is a 2-axis
 symplanes : the symmetry operation no.   8 is a mirror plane
 symplanes : the symmetry operation no.   9 is a mirror plane
 symaxes : the symmetry operation no.  10 is a tertiary 2-axis
 symspgr : the symmetry operation no.  11 is a -4 axis
 symaxes : the symmetry operation no.  12 is a 4-axis
 symspgr : the symmetry operation no.  13 is a -4 axis
 symaxes : the symmetry operation no.  14 is a 4-axis
 symplanes : the symmetry operation no.  15 is a mirror plane
 symaxes : the symmetry operation no.  16 is a tertiary 2-axis
 symspgr : spgroup= 123  P4/m m m   (=D4h^1)
 inkpts: Sum of    1 k point weights is    1.000000

 invars1m : enter jdtset=    12
 invars1 : treat image number     1

 symlatt : the Bravais lattice is cP (primitive cubic)
  xcart  is defined in input file
 ingeo : takes atomic coordinates from input array xcart

 symlatt : the Bravais lattice is cP (primitive cubic)

 symlatt : the Bravais lattice is cP (primitive cubic)
 symspgr : the symmetry operation no.   1 is the identity
 symspgr : the symmetry operation no.   2 is an inversion
 symaxes : the symmetry operation no.   3 is a 2-axis
 symplanes : the symmetry operation no.   4 is a mirror plane
 symaxes : the symmetry operation no.   5 is a 2-axis
 symplanes : the symmetry operation no.   6 is a mirror plane
 symaxes : the symmetry operation no.   7 is a 2-axis
 symplanes : the symmetry operation no.   8 is a mirror plane
 symplanes : the symmetry operation no.   9 is a mirror plane
 symaxes : the symmetry operation no.  10 is a tertiary 2-axis
 symspgr : the symmetry operation no.  11 is a -4 axis
 symaxes : the symmetry operation no.  12 is a 4-axis
 symplanes : the symmetry operation no.  13 is a mirror plane
 symaxes : the symmetry operation no.  14 is a tertiary 2-axis
 symspgr : the symmetry operation no.  15 is a -4 axis
 symaxes : the symmetry operation no.  16 is a 4-axis
 symaxes : the symmetry operation no.  17 is a 3-axis
 symspgr : the symmetry operation no.  18 is a -3 axis
 symaxes : the symmetry operation no.  19 is a 3-axis
 symspgr : the symmetry operation no.  20 is a -3 axis
 symaxes : the symmetry operation no.  21 is a 3-axis
 symspgr : the symmetry operation no.  22 is a -3 axis
 symaxes : the symmetry operation no.  23 is a 3-axis
 symspgr : the symmetry operation no.  24 is a -3 axis
 symplanes : the symmetry operation no.  25 is a mirror plane
 symaxes : the symmetry operation no.  26 is a tertiary 2-axis
 symspgr : the symmetry operation no.  27 is a -4 axis
 symaxes : the symmetry operation no.  28 is a 4-axis
 symspgr : the symmetry operation no.  29 is a -4 axis
 symaxes : the symmetry operation no.  30 is a 4-axis
 symplanes : the symmetry operation no.  31 is a mirror plane
 symaxes : the symmetry operation no.  32 is a tertiary 2-axis
 symaxes : the symmetry operation no.  33 is a 3-axis
 symspgr : the symmetry operation no.  34 is a -3 axis
 symaxes : the symmetry operation no.  35 is a 3-axis
 symspgr : the symmetry operation no.  36 is a -3 axis
 symaxes : the symmetry operation no.  37 is a 3-axis
 symspgr : the symmetry operation no.  38 is a -3 axis
 symaxes : the symmetry operation no.  39 is a 3-axis
 symspgr : the symmetry operation no.  40 is a -3 axis
 symplanes : the symmetry operation no.  41 is a mirror plane
 symaxes : the symmetry operation no.  42 is a tertiary 2-axis
 symplanes : the symmetry operation no.  43 is a mirror plane
 symaxes : the symmetry operation no.  44 is a tertiary 2-axis
 symspgr : the symmetry operation no.  45 is a -4 axis
 symaxes : the symmetry operation no.  46 is a 4-axis
 symspgr : the symmetry operation no.  47 is a -4 axis
 symaxes : the symmetry operation no.  48 is a 4-axis
 symspgr : spgroup= 221  Pm -3 m   (=Oh^1)
 inkpts: Sum of    1 k point weights is    1.000000

 invars1m : enter jdtset=    21
 invars1 : treat image number     1

 symlatt : the Bravais lattice is cP (primitive cubic)
  xcart  is defined in input file
 ingeo : takes atomic coordinates from input array xcart

 symlatt : the Bravais lattice is cP (primitive cubic)

 symlatt : the Bravais lattice is cP (primitive cubic)

 symbrav : COMMENT -
  The Bravais lattice determined only from the primitive
  vectors, bravais(1)=  7, is more symmetric
  than the real one, iholohedry=  4, obtained by taking into
  account the atomic positions. Start deforming the primitive vector set.

 symlatt : the Bravais lattice is tP (primitive tetragonal)
 symspgr : the symmetry operation no.   1 is the identity
 symspgr : the symmetry operation no.   2 is an inversion
 symaxes : the symmetry operation no.   3 is a 2-axis
 symplanes : the symmetry operation no.   4 is a mirror plane
 symaxes : the symmetry operation no.   5 is a 2-axis
 symplanes : the symmetry operation no.   6 is a mirror plane
 symaxes : the symmetry operation no.   7 is a 2-axis
 symplanes : the symmetry operation no.   8 is a mirror plane
 symplanes : the symmetry operation no.   9 is a mirror plane
 symaxes : the symmetry operation no.  10 is a tertiary 2-axis
 symspgr : the symmetry operation no.  11 is a -4 axis
 symaxes : the symmetry operation no.  12 is a 4-axis
 symspgr : the symmetry operation no.  13 is a -4 axis
 symaxes : the symmetry operation no.  14 is a 4-axis
 symplanes : the symmetry operation no.  15 is a mirror plane
 symaxes : the symmetry operation no.  16 is a tertiary 2-axis
 symspgr : spgroup= 123  P4/m m m   (=D4h^1)
 inkpts: Sum of    1 k point weights is    1.000000

 invars1m : enter jdtset=    22
 invars1 : treat image number     1

 symlatt : the Bravais lattice is cP (primitive cubic)
  xcart  is defined in input file
 ingeo : takes atomic coordinates from input array xcart

 symlatt : the Bravais lattice is cP (primitive cubic)

 symlatt : the Bravais lattice is cP (primitive cubic)
 symspgr : the symmetry operation no.   1 is the identity
 symspgr : the symmetry operation no.   2 is an inversion
 symaxes : the symmetry operation no.   3 is a 2-axis
 symplanes : the symmetry operation no.   4 is a mirror plane
 symaxes : the symmetry operation no.   5 is a 2-axis
 symplanes : the symmetry operation no.   6 is a mirror plane
 symaxes : the symmetry operation no.   7 is a 2-axis
 symplanes : the symmetry operation no.   8 is a mirror plane
 symplanes : the symmetry operation no.   9 is a mirror plane
 symaxes : the symmetry operation no.  10 is a tertiary 2-axis
 symspgr : the symmetry operation no.  11 is a -4 axis
 symaxes : the symmetry operation no.  12 is a 4-axis
 symplanes : the symmetry operation no.  13 is a mirror plane
 symaxes : the symmetry operation no.  14 is a tertiary 2-axis
 symspgr : the symmetry operation no.  15 is a -4 axis
 symaxes : the symmetry operation no.  16 is a 4-axis
 symaxes : the symmetry operation no.  17 is a 3-axis
 symspgr : the symmetry operation no.  18 is a -3 axis
 symaxes : the symmetry operation no.  19 is a 3-axis
 symspgr : the symmetry operation no.  20 is a -3 axis
 symaxes : the symmetry operation no.  21 is a 3-axis
 symspgr : the symmetry operation no.  22 is a -3 axis
 symaxes : the symmetry operation no.  23 is a 3-axis
 symspgr : the symmetry operation no.  24 is a -3 axis
 symplanes : the symmetry operation no.  25 is a mirror plane
 symaxes : the symmetry operation no.  26 is a tertiary 2-axis
 symspgr : the symmetry operation no.  27 is a -4 axis
 symaxes : the symmetry operation no.  28 is a 4-axis
 symspgr : the symmetry operation no.  29 is a -4 axis
 symaxes : the symmetry operation no.  30 is a 4-axis
 symplanes : the symmetry operation no.  31 is a mirror plane
 symaxes : the symmetry operation no.  32 is a tertiary 2-axis
 symaxes : the symmetry operation no.  33 is a 3-axis
 symspgr : the symmetry operation no.  34 is a -3 axis
 symaxes : the symmetry operation no.  35 is a 3-axis
 symspgr : the symmetry operation no.  36 is a -3 axis
 symaxes : the symmetry operation no.  37 is a 3-axis
 symspgr : the symmetry operation no.  38 is a -3 axis
 symaxes : the symmetry operation no.  39 is a 3-axis
 symspgr : the symmetry operation no.  40 is a -3 axis
 symplanes : the symmetry operation no.  41 is a mirror plane
 symaxes : the symmetry operation no.  42 is a tertiary 2-axis
 symplanes : the symmetry operation no.  43 is a mirror plane
 symaxes : the symmetry operation no.  44 is a tertiary 2-axis
 symspgr : the symmetry operation no.  45 is a -4 axis
 symaxes : the symmetry operation no.  46 is a 4-axis
 symspgr : the symmetry operation no.  47 is a -4 axis
 symaxes : the symmetry operation no.  48 is a 4-axis
 symspgr : spgroup= 221  Pm -3 m   (=Oh^1)
 inkpts: Sum of    1 k point weights is    1.000000

 invars1m : enter jdtset=    31
 invars1 : treat image number     1

 symlatt : the Bravais lattice is cP (primitive cubic)
  xcart  is defined in input file
 ingeo : takes atomic coordinates from input array xcart

 symlatt : the Bravais lattice is cP (primitive cubic)

 symlatt : the Bravais lattice is cP (primitive cubic)

 symbrav : COMMENT -
  The Bravais lattice determined only from the primitive
  vectors, bravais(1)=  7, is more symmetric
  than the real one, iholohedry=  4, obtained by taking into
  account the atomic positions. Start deforming the primitive vector set.

 symlatt : the Bravais lattice is tP (primitive tetragonal)
 symspgr : the symmetry operation no.   1 is the identity
 symspgr : the symmetry operation no.   2 is an inversion
 symaxes : the symmetry operation no.   3 is a 2-axis
 symplanes : the symmetry operation no.   4 is a mirror plane
 symaxes : the symmetry operation no.   5 is a 2-axis
 symplanes : the symmetry operation no.   6 is a mirror plane
 symaxes : the symmetry operation no.   7 is a 2-axis
 symplanes : the symmetry operation no.   8 is a mirror plane
 symplanes : the symmetry operation no.   9 is a mirror plane
 symaxes : the symmetry operation no.  10 is a tertiary 2-axis
 symspgr : the symmetry operation no.  11 is a -4 axis
 symaxes : the symmetry operation no.  12 is a 4-axis
 symspgr : the symmetry operation no.  13 is a -4 axis
 symaxes : the symmetry operation no.  14 is a 4-axis
 symplanes : the symmetry operation no.  15 is a mirror plane
 symaxes : the symmetry operation no.  16 is a tertiary 2-axis
 symspgr : spgroup= 123  P4/m m m   (=D4h^1)
 inkpts: Sum of    1 k point weights is    1.000000

 invars1m : enter jdtset=    32
 invars1 : treat image number     1

 symlatt : the Bravais lattice is cP (primitive cubic)
  xcart  is defined in input file
 ingeo : takes atomic coordinates from input array xcart

 symlatt : the Bravais lattice is cP (primitive cubic)

 symlatt : the Bravais lattice is cP (primitive cubic)
 symspgr : the symmetry operation no.   1 is the identity
 symspgr : the symmetry operation no.   2 is an inversion
 symaxes : the symmetry operation no.   3 is a 2-axis
 symplanes : the symmetry operation no.   4 is a mirror plane
 symaxes : the symmetry operation no.   5 is a 2-axis
 symplanes : the symmetry operation no.   6 is a mirror plane
 symaxes : the symmetry operation no.   7 is a 2-axis
 symplanes : the symmetry operation no.   8 is a mirror plane
 symplanes : the symmetry operation no.   9 is a mirror plane
 symaxes : the symmetry operation no.  10 is a tertiary 2-axis
 symspgr : the symmetry operation no.  11 is a -4 axis
 symaxes : the symmetry operation no.  12 is a 4-axis
 symplanes : the symmetry operation no.  13 is a mirror plane
 symaxes : the symmetry operation no.  14 is a tertiary 2-axis
 symspgr : the symmetry operation no.  15 is a -4 axis
 symaxes : the symmetry operation no.  16 is a 4-axis
 symaxes : the symmetry operation no.  17 is a 3-axis
 symspgr : the symmetry operation no.  18 is a -3 axis
 symaxes : the symmetry operation no.  19 is a 3-axis
 symspgr : the symmetry operation no.  20 is a -3 axis
 symaxes : the symmetry operation no.  21 is a 3-axis
 symspgr : the symmetry operation no.  22 is a -3 axis
 symaxes : the symmetry operation no.  23 is a 3-axis
 symspgr : the symmetry operation no.  24 is a -3 axis
 symplanes : the symmetry operation no.  25 is a mirror plane
 symaxes : the symmetry operation no.  26 is a tertiary 2-axis
 symspgr : the symmetry operation no.  27 is a -4 axis
 symaxes : the symmetry operation no.  28 is a 4-axis
 symspgr : the symmetry operation no.  29 is a -4 axis
 symaxes : the symmetry operation no.  30 is a 4-axis
 symplanes : the symmetry operation no.  31 is a mirror plane
 symaxes : the symmetry operation no.  32 is a tertiary 2-axis
 symaxes : the symmetry operation no.  33 is a 3-axis
 symspgr : the symmetry operation no.  34 is a -3 axis
 symaxes : the symmetry operation no.  35 is a 3-axis
 symspgr : the symmetry operation no.  36 is a -3 axis
 symaxes : the symmetry operation no.  37 is a 3-axis
 symspgr : the symmetry operation no.  38 is a -3 axis
 symaxes : the symmetry operation no.  39 is a 3-axis
 symspgr : the symmetry operation no.  40 is a -3 axis
 symplanes : the symmetry operation no.  41 is a mirror plane
 symaxes : the symmetry operation no.  42 is a tertiary 2-axis
 symplanes : the symmetry operation no.  43 is a mirror plane
 symaxes : the symmetry operation no.  44 is a tertiary 2-axis
 symspgr : the symmetry operation no.  45 is a -4 axis
 symaxes : the symmetry operation no.  46 is a 4-axis
 symspgr : the symmetry operation no.  47 is a -4 axis
 symaxes : the symmetry operation no.  48 is a 4-axis
 symspgr : spgroup= 221  Pm -3 m   (=Oh^1)
 inkpts: Sum of    1 k point weights is    1.000000

 invars1m : enter jdtset=    41
 invars1 : treat image number     1

 symlatt : the Bravais lattice is cP (primitive cubic)
  xcart  is defined in input file
 ingeo : takes atomic coordinates from input array xcart

 symlatt : the Bravais lattice is cP (primitive cubic)

 symlatt : the Bravais lattice is cP (primitive cubic)

 symbrav : COMMENT -
  The Bravais lattice determined only from the primitive
  vectors, bravais(1)=  7, is more symmetric
  than the real one, iholohedry=  4, obtained by taking into
  account the atomic positions. Start deforming the primitive vector set.

 symlatt : the Bravais lattice is tP (primitive tetragonal)
 symspgr : the symmetry operation no.   1 is the identity
 symspgr : the symmetry operation no.   2 is an inversion
 symaxes : the symmetry operation no.   3 is a 2-axis
 symplanes : the symmetry operation no.   4 is a mirror plane
 symaxes : the symmetry operation no.   5 is a 2-axis
 symplanes : the symmetry operation no.   6 is a mirror plane
 symaxes : the symmetry operation no.   7 is a 2-axis
 symplanes : the symmetry operation no.   8 is a mirror plane
 symplanes : the symmetry operation no.   9 is a mirror plane
 symaxes : the symmetry operation no.  10 is a tertiary 2-axis
 symspgr : the symmetry operation no.  11 is a -4 axis
 symaxes : the symmetry operation no.  12 is a 4-axis
 symspgr : the symmetry operation no.  13 is a -4 axis
 symaxes : the symmetry operation no.  14 is a 4-axis
 symplanes : the symmetry operation no.  15 is a mirror plane
 symaxes : the symmetry operation no.  16 is a tertiary 2-axis
 symspgr : spgroup= 123  P4/m m m   (=D4h^1)
 inkpts: Sum of    1 k point weights is    1.000000

 invars1m : enter jdtset=    42
 invars1 : treat image number     1

 symlatt : the Bravais lattice is cP (primitive cubic)
  xcart  is defined in input file
 ingeo : takes atomic coordinates from input array xcart

 symlatt : the Bravais lattice is cP (primitive cubic)

 symlatt : the Bravais lattice is cP (primitive cubic)
 symspgr : the symmetry operation no.   1 is the identity
 symspgr : the symmetry operation no.   2 is an inversion
 symaxes : the symmetry operation no.   3 is a 2-axis
 symplanes : the symmetry operation no.   4 is a mirror plane
 symaxes : the symmetry operation no.   5 is a 2-axis
 symplanes : the symmetry operation no.   6 is a mirror plane
 symaxes : the symmetry operation no.   7 is a 2-axis
 symplanes : the symmetry operation no.   8 is a mirror plane
 symplanes : the symmetry operation no.   9 is a mirror plane
 symaxes : the symmetry operation no.  10 is a tertiary 2-axis
 symspgr : the symmetry operation no.  11 is a -4 axis
 symaxes : the symmetry operation no.  12 is a 4-axis
 symplanes : the symmetry operation no.  13 is a mirror plane
 symaxes : the symmetry operation no.  14 is a tertiary 2-axis
 symspgr : the symmetry operation no.  15 is a -4 axis
 symaxes : the symmetry operation no.  16 is a 4-axis
 symaxes : the symmetry operation no.  17 is a 3-axis
 symspgr : the symmetry operation no.  18 is a -3 axis
 symaxes : the symmetry operation no.  19 is a 3-axis
 symspgr : the symmetry operation no.  20 is a -3 axis
 symaxes : the symmetry operation no.  21 is a 3-axis
 symspgr : the symmetry operation no.  22 is a -3 axis
 symaxes : the symmetry operation no.  23 is a 3-axis
 symspgr : the symmetry operation no.  24 is a -3 axis
 symplanes : the symmetry operation no.  25 is a mirror plane
 symaxes : the symmetry operation no.  26 is a tertiary 2-axis
 symspgr : the symmetry operation no.  27 is a -4 axis
 symaxes : the symmetry operation no.  28 is a 4-axis
 symspgr : the symmetry operation no.  29 is a -4 axis
 symaxes : the symmetry operation no.  30 is a 4-axis
 symplanes : the symmetry operation no.  31 is a mirror plane
 symaxes : the symmetry operation no.  32 is a tertiary 2-axis
 symaxes : the symmetry operation no.  33 is a 3-axis
 symspgr : the symmetry operation no.  34 is a -3 axis
 symaxes : the symmetry operation no.  35 is a 3-axis
 symspgr : the symmetry operation no.  36 is a -3 axis
 symaxes : the symmetry operation no.  37 is a 3-axis
 symspgr : the symmetry operation no.  38 is a -3 axis
 symaxes : the symmetry operation no.  39 is a 3-axis
 symspgr : the symmetry operation no.  40 is a -3 axis
 symplanes : the symmetry operation no.  41 is a mirror plane
 symaxes : the symmetry operation no.  42 is a tertiary 2-axis
 symplanes : the symmetry operation no.  43 is a mirror plane
 symaxes : the symmetry operation no.  44 is a tertiary 2-axis
 symspgr : the symmetry operation no.  45 is a -4 axis
 symaxes : the symmetry operation no.  46 is a 4-axis
 symspgr : the symmetry operation no.  47 is a -4 axis
 symaxes : the symmetry operation no.  48 is a 4-axis
 symspgr : spgroup= 221  Pm -3 m   (=Oh^1)
 inkpts: Sum of    1 k point weights is    1.000000

 invars1m : enter jdtset=    51
 invars1 : treat image number     1

 symlatt : the Bravais lattice is cP (primitive cubic)
  xcart  is defined in input file
 ingeo : takes atomic coordinates from input array xcart

 symlatt : the Bravais lattice is cP (primitive cubic)

 symlatt : the Bravais lattice is cP (primitive cubic)

 symbrav : COMMENT -
  The Bravais lattice determined only from the primitive
  vectors, bravais(1)=  7, is more symmetric
  than the real one, iholohedry=  4, obtained by taking into
  account the atomic positions. Start deforming the primitive vector set.

 symlatt : the Bravais lattice is tP (primitive tetragonal)
 symspgr : the symmetry operation no.   1 is the identity
 symspgr : the symmetry operation no.   2 is an inversion
 symaxes : the symmetry operation no.   3 is a 2-axis
 symplanes : the symmetry operation no.   4 is a mirror plane
 symaxes : the symmetry operation no.   5 is a 2-axis
 symplanes : the symmetry operation no.   6 is a mirror plane
 symaxes : the symmetry operation no.   7 is a 2-axis
 symplanes : the symmetry operation no.   8 is a mirror plane
 symplanes : the symmetry operation no.   9 is a mirror plane
 symaxes : the symmetry operation no.  10 is a tertiary 2-axis
 symspgr : the symmetry operation no.  11 is a -4 axis
 symaxes : the symmetry operation no.  12 is a 4-axis
 symspgr : the symmetry operation no.  13 is a -4 axis
 symaxes : the symmetry operation no.  14 is a 4-axis
 symplanes : the symmetry operation no.  15 is a mirror plane
 symaxes : the symmetry operation no.  16 is a tertiary 2-axis
 symspgr : spgroup= 123  P4/m m m   (=D4h^1)
 inkpts: Sum of    1 k point weights is    1.000000

 invars1m : enter jdtset=    52
 invars1 : treat image number     1

 symlatt : the Bravais lattice is cP (primitive cubic)
  xcart  is defined in input file
 ingeo : takes atomic coordinates from input array xcart

 symlatt : the Bravais lattice is cP (primitive cubic)

 symlatt : the Bravais lattice is cP (primitive cubic)
 symspgr : the symmetry operation no.   1 is the identity
 symspgr : the symmetry operation no.   2 is an inversion
 symaxes : the symmetry operation no.   3 is a 2-axis
 symplanes : the symmetry operation no.   4 is a mirror plane
 symaxes : the symmetry operation no.   5 is a 2-axis
 symplanes : the symmetry operation no.   6 is a mirror plane
 symaxes : the symmetry operation no.   7 is a 2-axis
 symplanes : the symmetry operation no.   8 is a mirror plane
 symplanes : the symmetry operation no.   9 is a mirror plane
 symaxes : the symmetry operation no.  10 is a tertiary 2-axis
 symspgr : the symmetry operation no.  11 is a -4 axis
 symaxes : the symmetry operation no.  12 is a 4-axis
 symplanes : the symmetry operation no.  13 is a mirror plane
 symaxes : the symmetry operation no.  14 is a tertiary 2-axis
 symspgr : the symmetry operation no.  15 is a -4 axis
 symaxes : the symmetry operation no.  16 is a 4-axis
 symaxes : the symmetry operation no.  17 is a 3-axis
 symspgr : the symmetry operation no.  18 is a -3 axis
 symaxes : the symmetry operation no.  19 is a 3-axis
 symspgr : the symmetry operation no.  20 is a -3 axis
 symaxes : the symmetry operation no.  21 is a 3-axis
 symspgr : the symmetry operation no.  22 is a -3 axis
 symaxes : the symmetry operation no.  23 is a 3-axis
 symspgr : the symmetry operation no.  24 is a -3 axis
 symplanes : the symmetry operation no.  25 is a mirror plane
 symaxes : the symmetry operation no.  26 is a tertiary 2-axis
 symspgr : the symmetry operation no.  27 is a -4 axis
 symaxes : the symmetry operation no.  28 is a 4-axis
 symspgr : the symmetry operation no.  29 is a -4 axis
 symaxes : the symmetry operation no.  30 is a 4-axis
 symplanes : the symmetry operation no.  31 is a mirror plane
 symaxes : the symmetry operation no.  32 is a tertiary 2-axis
 symaxes : the symmetry operation no.  33 is a 3-axis
 symspgr : the symmetry operation no.  34 is a -3 axis
 symaxes : the symmetry operation no.  35 is a 3-axis
 symspgr : the symmetry operation no.  36 is a -3 axis
 symaxes : the symmetry operation no.  37 is a 3-axis
 symspgr : the symmetry operation no.  38 is a -3 axis
 symaxes : the symmetry operation no.  39 is a 3-axis
 symspgr : the symmetry operation no.  40 is a -3 axis
 symplanes : the symmetry operation no.  41 is a mirror plane
 symaxes : the symmetry operation no.  42 is a tertiary 2-axis
 symplanes : the symmetry operation no.  43 is a mirror plane
 symaxes : the symmetry operation no.  44 is a tertiary 2-axis
 symspgr : the symmetry operation no.  45 is a -4 axis
 symaxes : the symmetry operation no.  46 is a 4-axis
 symspgr : the symmetry operation no.  47 is a -4 axis
 symaxes : the symmetry operation no.  48 is a 4-axis
 symspgr : spgroup= 221  Pm -3 m   (=Oh^1)
 inkpts: Sum of    1 k point weights is    1.000000

 invars1m : enter jdtset=    61
 invars1 : treat image number     1

 symlatt : the Bravais lattice is cP (primitive cubic)
  xcart  is defined in input file
 ingeo : takes atomic coordinates from input array xcart

 symlatt : the Bravais lattice is cP (primitive cubic)

 symlatt : the Bravais lattice is cP (primitive cubic)

 symbrav : COMMENT -
  The Bravais lattice determined only from the primitive
  vectors, bravais(1)=  7, is more symmetric
  than the real one, iholohedry=  4, obtained by taking into
  account the atomic positions. Start deforming the primitive vector set.

 symlatt : the Bravais lattice is tP (primitive tetragonal)
 symspgr : the symmetry operation no.   1 is the identity
 symspgr : the symmetry operation no.   2 is an inversion
 symaxes : the symmetry operation no.   3 is a 2-axis
 symplanes : the symmetry operation no.   4 is a mirror plane
 symaxes : the symmetry operation no.   5 is a 2-axis
 symplanes : the symmetry operation no.   6 is a mirror plane
 symaxes : the symmetry operation no.   7 is a 2-axis
 symplanes : the symmetry operation no.   8 is a mirror plane
 symplanes : the symmetry operation no.   9 is a mirror plane
 symaxes : the symmetry operation no.  10 is a tertiary 2-axis
 symspgr : the symmetry operation no.  11 is a -4 axis
 symaxes : the symmetry operation no.  12 is a 4-axis
 symspgr : the symmetry operation no.  13 is a -4 axis
 symaxes : the symmetry operation no.  14 is a 4-axis
 symplanes : the symmetry operation no.  15 is a mirror plane
 symaxes : the symmetry operation no.  16 is a tertiary 2-axis
 symspgr : spgroup= 123  P4/m m m   (=D4h^1)
 inkpts: Sum of    1 k point weights is    1.000000

 invars1m : enter jdtset=    62
 invars1 : treat image number     1

 symlatt : the Bravais lattice is cP (primitive cubic)
  xcart  is defined in input file
 ingeo : takes atomic coordinates from input array xcart

 symlatt : the Bravais lattice is cP (primitive cubic)

 symlatt : the Bravais lattice is cP (primitive cubic)
 symspgr : the symmetry operation no.   1 is the identity
 symspgr : the symmetry operation no.   2 is an inversion
 symaxes : the symmetry operation no.   3 is a 2-axis
 symplanes : the symmetry operation no.   4 is a mirror plane
 symaxes : the symmetry operation no.   5 is a 2-axis
 symplanes : the symmetry operation no.   6 is a mirror plane
 symaxes : the symmetry operation no.   7 is a 2-axis
 symplanes : the symmetry operation no.   8 is a mirror plane
 symplanes : the symmetry operation no.   9 is a mirror plane
 symaxes : the symmetry operation no.  10 is a tertiary 2-axis
 symspgr : the symmetry operation no.  11 is a -4 axis
 symaxes : the symmetry operation no.  12 is a 4-axis
 symplanes : the symmetry operation no.  13 is a mirror plane
 symaxes : the symmetry operation no.  14 is a tertiary 2-axis
 symspgr : the symmetry operation no.  15 is a -4 axis
 symaxes : the symmetry operation no.  16 is a 4-axis
 symaxes : the symmetry operation no.  17 is a 3-axis
 symspgr : the symmetry operation no.  18 is a -3 axis
 symaxes : the symmetry operation no.  19 is a 3-axis
 symspgr : the symmetry operation no.  20 is a -3 axis
 symaxes : the symmetry operation no.  21 is a 3-axis
 symspgr : the symmetry operation no.  22 is a -3 axis
 symaxes : the symmetry operation no.  23 is a 3-axis
 symspgr : the symmetry operation no.  24 is a -3 axis
 symplanes : the symmetry operation no.  25 is a mirror plane
 symaxes : the symmetry operation no.  26 is a tertiary 2-axis
 symspgr : the symmetry operation no.  27 is a -4 axis
 symaxes : the symmetry operation no.  28 is a 4-axis
 symspgr : the symmetry operation no.  29 is a -4 axis
 symaxes : the symmetry operation no.  30 is a 4-axis
 symplanes : the symmetry operation no.  31 is a mirror plane
 symaxes : the symmetry operation no.  32 is a tertiary 2-axis
 symaxes : the symmetry operation no.  33 is a 3-axis
 symspgr : the symmetry operation no.  34 is a -3 axis
 symaxes : the symmetry operation no.  35 is a 3-axis
 symspgr : the symmetry operation no.  36 is a -3 axis
 symaxes : the symmetry operation no.  37 is a 3-axis
 symspgr : the symmetry operation no.  38 is a -3 axis
 symaxes : the symmetry operation no.  39 is a 3-axis
 symspgr : the symmetry operation no.  40 is a -3 axis
 symplanes : the symmetry operation no.  41 is a mirror plane
 symaxes : the symmetry operation no.  42 is a tertiary 2-axis
 symplanes : the symmetry operation no.  43 is a mirror plane
 symaxes : the symmetry operation no.  44 is a tertiary 2-axis
 symspgr : the symmetry operation no.  45 is a -4 axis
 symaxes : the symmetry operation no.  46 is a 4-axis
 symspgr : the symmetry operation no.  47 is a -4 axis
 symaxes : the symmetry operation no.  48 is a 4-axis
 symspgr : spgroup= 221  Pm -3 m   (=Oh^1)
 inkpts: Sum of    1 k point weights is    1.000000
 inkpts: Sum of    1 k point weights is    1.000000
  dtset%nelect=   2.0000000000000000     
 chkneu : initialized the occupation numbers for occopt=    1
    spin-unpolarized case :
  2.00
 inkpts: Sum of    1 k point weights is    1.000000
 invars2: reading occ(nband*nkpt*nsppol) explicitly
  dtset%nelect=   1.0000000000000000     
 inkpts: Sum of    1 k point weights is    1.000000
  dtset%nelect=   2.0000000000000000     
 chkneu : initialized the occupation numbers for occopt=    1
    spin-unpolarized case :
  2.00
 inkpts: Sum of    1 k point weights is    1.000000
 invars2: reading occ(nband*nkpt*nsppol) explicitly
  dtset%nelect=   1.0000000000000000     
 inkpts: Sum of    1 k point weights is    1.000000
  dtset%nelect=   2.0000000000000000     
 chkneu : initialized the occupation numbers for occopt=    1
    spin-unpolarized case :
  2.00
 inkpts: Sum of    1 k point weights is    1.000000
 invars2: reading occ(nband*nkpt*nsppol) explicitly
  dtset%nelect=   1.0000000000000000     
 inkpts: Sum of    1 k point weights is    1.000000
  dtset%nelect=   2.0000000000000000     
 chkneu : initialized the occupation numbers for occopt=    1
    spin-unpolarized case :
  2.00
 inkpts: Sum of    1 k point weights is    1.000000
 invars2: reading occ(nband*nkpt*nsppol) explicitly
  dtset%nelect=   1.0000000000000000     
 inkpts: Sum of    1 k point weights is    1.000000
  dtset%nelect=   2.0000000000000000     
 chkneu : initialized the occupation numbers for occopt=    1
    spin-unpolarized case :
  2.00
 inkpts: Sum of    1 k point weights is    1.000000
 invars2: reading occ(nband*nkpt*nsppol) explicitly
  dtset%nelect=   1.0000000000000000     
 inkpts: Sum of    1 k point weights is    1.000000
  dtset%nelect=   2.0000000000000000     
 chkneu : initialized the occupation numbers for occopt=    1
    spin-unpolarized case :
  2.00
 inkpts: Sum of    1 k point weights is    1.000000
 invars2: reading occ(nband*nkpt*nsppol) explicitly
  dtset%nelect=   1.0000000000000000     
  mpi_setup : enter 
 mpi_setup1: mkmem  undefined in the input file. Use default mkmem  = nkpt
 mpi_setup1: With nkpt_me=    1 and mkmem  =     1, ground state wf handled in core.
 mpi_setup1: mkqmem undefined in the input file. Use default mkqmem = nkpt
 mpi_setup1: With nkpt_me=    1 and mkqmem =     1, ground state wf handled in core.
 mpi_setup1: mk1mem undefined in the input file. Use default mk1mem = nkpt
 mpi_setup1: With nkpt_me=    1 and mk1mem =     1, ground state wf handled in core.

 getng.F90:200:WARNING
   The second and third dimension of the FFT grid,    0    0  were imposed to be multiple of the number of processors for the FFT,    1
 For input ecut=  1.000000E+01 best grid ngfft=      30      30      30
       max ecut=  1.110330E+01

 ==== FFT mesh ====
  FFT mesh divisions ........................    30   30   30
  Augmented FFT divisions ...................    31   31   30
  FFT algorithm .............................   112
  FFT cache size ............................    16
 getmpw: optimal value of mpw=     752
 mpi_setup1: mkmem  undefined in the input file. Use default mkmem  = nkpt
 mpi_setup1: With nkpt_me=    1 and mkmem  =     1, ground state wf handled in core.
 mpi_setup1: mkqmem undefined in the input file. Use default mkqmem = nkpt
 mpi_setup1: With nkpt_me=    1 and mkqmem =     1, ground state wf handled in core.
 mpi_setup1: mk1mem undefined in the input file. Use default mk1mem = nkpt
 mpi_setup1: With nkpt_me=    1 and mk1mem =     1, ground state wf handled in core.
 For input ecut=  1.000000E+01 best grid ngfft=      30      30      30
       max ecut=  1.110330E+01

 ==== FFT mesh ====
  FFT mesh divisions ........................    30   30   30
  Augmented FFT divisions ...................    31   31   30
  FFT algorithm .............................   112
  FFT cache size ............................    16
 getmpw: optimal value of mpw=     752
 mpi_setup1: mkmem  undefined in the input file. Use default mkmem  = nkpt
 mpi_setup1: With nkpt_me=    1 and mkmem  =     1, ground state wf handled in core.
 mpi_setup1: mkqmem undefined in the input file. Use default mkqmem = nkpt
 mpi_setup1: With nkpt_me=    1 and mkqmem =     1, ground state wf handled in core.
 mpi_setup1: mk1mem undefined in the input file. Use default mk1mem = nkpt
 mpi_setup1: With nkpt_me=    1 and mk1mem =     1, ground state wf handled in core.
 For input ecut=  1.500000E+01 best grid ngfft=      36      36      36
       max ecut=  1.598876E+01

 ==== FFT mesh ====
  FFT mesh divisions ........................    36   36   36
  Augmented FFT divisions ...................    37   37   36
  FFT algorithm .............................   112
  FFT cache size ............................    16
 getmpw: optimal value of mpw=    1389
 mpi_setup1: mkmem  undefined in the input file. Use default mkmem  = nkpt
 mpi_setup1: With nkpt_me=    1 and mkmem  =     1, ground state wf handled in core.
 mpi_setup1: mkqmem undefined in the input file. Use default mkqmem = nkpt
 mpi_setup1: With nkpt_me=    1 and mkqmem =     1, ground state wf handled in core.
 mpi_setup1: mk1mem undefined in the input file. Use default mk1mem = nkpt
 mpi_setup1: With nkpt_me=    1 and mk1mem =     1, ground state wf handled in core.
 For input ecut=  1.500000E+01 best grid ngfft=      36      36      36
       max ecut=  1.598876E+01

 ==== FFT mesh ====
  FFT mesh divisions ........................    36   36   36
  Augmented FFT divisions ...................    37   37   36
  FFT algorithm .............................   112
  FFT cache size ............................    16
 getmpw: optimal value of mpw=    1389
 mpi_setup1: mkmem  undefined in the input file. Use default mkmem  = nkpt
 mpi_setup1: With nkpt_me=    1 and mkmem  =     1, ground state wf handled in core.
 mpi_setup1: mkqmem undefined in the input file. Use default mkqmem = nkpt
 mpi_setup1: With nkpt_me=    1 and mkqmem =     1, ground state wf handled in core.
 mpi_setup1: mk1mem undefined in the input file. Use default mk1mem = nkpt
 mpi_setup1: With nkpt_me=    1 and mk1mem =     1, ground state wf handled in core.
 For input ecut=  2.000000E+01 best grid ngfft=      45      45      45
       max ecut=  2.388444E+01

 ==== FFT mesh ====
  FFT mesh divisions ........................    45   45   45
  Augmented FFT divisions ...................    45   45   45
  FFT algorithm .............................   112
  FFT cache size ............................    16
 getmpw: optimal value of mpw=    2169
 mpi_setup1: mkmem  undefined in the input file. Use default mkmem  = nkpt
 mpi_setup1: With nkpt_me=    1 and mkmem  =     1, ground state wf handled in core.
 mpi_setup1: mkqmem undefined in the input file. Use default mkqmem = nkpt
 mpi_setup1: With nkpt_me=    1 and mkqmem =     1, ground state wf handled in core.
 mpi_setup1: mk1mem undefined in the input file. Use default mk1mem = nkpt
 mpi_setup1: With nkpt_me=    1 and mk1mem =     1, ground state wf handled in core.
 For input ecut=  2.000000E+01 best grid ngfft=      45      45      45
       max ecut=  2.388444E+01

 ==== FFT mesh ====
  FFT mesh divisions ........................    45   45   45
  Augmented FFT divisions ...................    45   45   45
  FFT algorithm .............................   112
  FFT cache size ............................    16
 getmpw: optimal value of mpw=    2169
 mpi_setup1: mkmem  undefined in the input file. Use default mkmem  = nkpt
 mpi_setup1: With nkpt_me=    1 and mkmem  =     1, ground state wf handled in core.
 mpi_setup1: mkqmem undefined in the input file. Use default mkqmem = nkpt
 mpi_setup1: With nkpt_me=    1 and mkqmem =     1, ground state wf handled in core.
 mpi_setup1: mk1mem undefined in the input file. Use default mk1mem = nkpt
 mpi_setup1: With nkpt_me=    1 and mk1mem =     1, ground state wf handled in core.
 For input ecut=  2.500000E+01 best grid ngfft=      48      48      48
       max ecut=  2.842446E+01

 ==== FFT mesh ====
  FFT mesh divisions ........................    48   48   48
  Augmented FFT divisions ...................    49   49   48
  FFT algorithm .............................   112
  FFT cache size ............................    16
 getmpw: optimal value of mpw=    3016
 mpi_setup1: mkmem  undefined in the input file. Use default mkmem  = nkpt
 mpi_setup1: With nkpt_me=    1 and mkmem  =     1, ground state wf handled in core.
 mpi_setup1: mkqmem undefined in the input file. Use default mkqmem = nkpt
 mpi_setup1: With nkpt_me=    1 and mkqmem =     1, ground state wf handled in core.
 mpi_setup1: mk1mem undefined in the input file. Use default mk1mem = nkpt
 mpi_setup1: With nkpt_me=    1 and mk1mem =     1, ground state wf handled in core.
 For input ecut=  2.500000E+01 best grid ngfft=      48      48      48
       max ecut=  2.842446E+01

 ==== FFT mesh ====
  FFT mesh divisions ........................    48   48   48
  Augmented FFT divisions ...................    49   49   48
  FFT algorithm .............................   112
  FFT cache size ............................    16
 getmpw: optimal value of mpw=    3016
 mpi_setup1: mkmem  undefined in the input file. Use default mkmem  = nkpt
 mpi_setup1: With nkpt_me=    1 and mkmem  =     1, ground state wf handled in core.
 mpi_setup1: mkqmem undefined in the input file. Use default mkqmem = nkpt
 mpi_setup1: With nkpt_me=    1 and mkqmem =     1, ground state wf handled in core.
 mpi_setup1: mk1mem undefined in the input file. Use default mk1mem = nkpt
 mpi_setup1: With nkpt_me=    1 and mk1mem =     1, ground state wf handled in core.
 For input ecut=  3.000000E+01 best grid ngfft=      50      50      50
       max ecut=  3.084251E+01

 ==== FFT mesh ====
  FFT mesh divisions ........................    50   50   50
  Augmented FFT divisions ...................    51   51   50
  FFT algorithm .............................   112
  FFT cache size ............................    16
 getmpw: optimal value of mpw=    3905
 mpi_setup1: mkmem  undefined in the input file. Use default mkmem  = nkpt
 mpi_setup1: With nkpt_me=    1 and mkmem  =     1, ground state wf handled in core.
 mpi_setup1: mkqmem undefined in the input file. Use default mkqmem = nkpt
 mpi_setup1: With nkpt_me=    1 and mkqmem =     1, ground state wf handled in core.
 mpi_setup1: mk1mem undefined in the input file. Use default mk1mem = nkpt
 mpi_setup1: With nkpt_me=    1 and mk1mem =     1, ground state wf handled in core.
 For input ecut=  3.000000E+01 best grid ngfft=      50      50      50
       max ecut=  3.084251E+01

 ==== FFT mesh ====
  FFT mesh divisions ........................    50   50   50
  Augmented FFT divisions ...................    51   51   50
  FFT algorithm .............................   112
  FFT cache size ............................    16
 getmpw: optimal value of mpw=    3905
 mpi_setup1: mkmem  undefined in the input file. Use default mkmem  = nkpt
 mpi_setup1: With nkpt_me=    1 and mkmem  =     1, ground state wf handled in core.
 mpi_setup1: mkqmem undefined in the input file. Use default mkqmem = nkpt
 mpi_setup1: With nkpt_me=    1 and mkqmem =     1, ground state wf handled in core.
 mpi_setup1: mk1mem undefined in the input file. Use default mk1mem = nkpt
 mpi_setup1: With nkpt_me=    1 and mk1mem =     1, ground state wf handled in core.
 For input ecut=  3.500000E+01 best grid ngfft=      54      54      54
       max ecut=  3.597471E+01

 ==== FFT mesh ====
  FFT mesh divisions ........................    54   54   54
  Augmented FFT divisions ...................    55   55   54
  FFT algorithm .............................   112
  FFT cache size ............................    16
 getmpw: optimal value of mpw=    4922
 mpi_setup1: mkmem  undefined in the input file. Use default mkmem  = nkpt
 mpi_setup1: With nkpt_me=    1 and mkmem  =     1, ground state wf handled in core.
 mpi_setup1: mkqmem undefined in the input file. Use default mkqmem = nkpt
 mpi_setup1: With nkpt_me=    1 and mkqmem =     1, ground state wf handled in core.
 mpi_setup1: mk1mem undefined in the input file. Use default mk1mem = nkpt
 mpi_setup1: With nkpt_me=    1 and mk1mem =     1, ground state wf handled in core.
 For input ecut=  3.500000E+01 best grid ngfft=      54      54      54
       max ecut=  3.597471E+01

 ==== FFT mesh ====
  FFT mesh divisions ........................    54   54   54
  Augmented FFT divisions ...................    55   55   54
  FFT algorithm .............................   112
  FFT cache size ............................    16
 getmpw: optimal value of mpw=    4922

 DATASET   11 : space group P4/m m m (#123); Bravais tP (primitive tetrag.)

 getdim_nloc : COMMENT -
  Despite there is only a local part to pseudopotential(s),
  lmnmax and lnmax are set to 1.

 getdim_nloc : deduce lmnmax  =   1, lnmax  =   1,
                      lmnmaxso=   1, lnmaxso=   1.
 setmqgrid : COMMENT -
  The number of points "mqgrid" in reciprocal space used for the
  description of the pseudopotentials has been set automatically
  by abinit to :     3001.
 memory : analysis of memory needs
================================================================================
 Values of the parameters that define the memory need for DATASET 11.
   intxc =         0  ionmov =         2    iscf =         7 xclevel =         1
  lmnmax =         1   lnmax =         1   mband =         1  mffmem =         1
P  mgfft =        30   mkmem =         1 mpssoang=         1     mpw =       752
  mqgrid =      3001   natom =         2    nfft =     27000    nkpt =         1
  nloalg =         4  nspden =         1 nspinor =         1  nsppol =         1
    nsym =        16  n1xccc =         0  ntypat =         1  occopt =         1
================================================================================
P This job should need less than                       7.888 Mbytes of memory.
  Rough estimation (10% accuracy) of disk space for files :
_ WF disk file :      0.013 Mbytes ; DEN or POT disk file :      0.208 Mbytes.
================================================================================

 Biggest array : f_fftgr(disk), with      3.2979 MBytes.
 memana : allocated an array of      3.298 Mbytes, for testing purposes.
 memana : allocated       7.888 Mbytes, for testing purposes.
 The job will continue.

 DATASET   12 : space group Pm -3 m (#221); Bravais cP (primitive cubic)

 getdim_nloc : COMMENT -
  Despite there is only a local part to pseudopotential(s),
  lmnmax and lnmax are set to 1.

 getdim_nloc : deduce lmnmax  =   1, lnmax  =   1,
                      lmnmaxso=   1, lnmaxso=   1.
 setmqgrid : COMMENT -
  The number of points "mqgrid" in reciprocal space used for the
  description of the pseudopotentials has been set automatically
  by abinit to :     3001.
 memory : analysis of memory needs
================================================================================
 Values of the parameters that define the memory need for DATASET 12.
   intxc =         0  ionmov =         0    iscf =         7 xclevel =         1
  lmnmax =         1   lnmax =         1   mband =         1  mffmem =         1
P  mgfft =        30   mkmem =         1 mpssoang=         1     mpw =       752
  mqgrid =      3001   natom =         1    nfft =     27000    nkpt =         1
  nloalg =         4  nspden =         2 nspinor =         1  nsppol =         2
    nsym =        48  n1xccc =         0  ntypat =         1  occopt =         2
================================================================================
P This job should need less than                      12.011 Mbytes of memory.
  Rough estimation (10% accuracy) of disk space for files :
_ WF disk file :      0.025 Mbytes ; DEN or POT disk file :      0.414 Mbytes.
================================================================================

 Biggest array : f_fftgr(disk), with      6.5938 MBytes.
 memana : allocated an array of      6.594 Mbytes, for testing purposes.
 memana : allocated      12.011 Mbytes, for testing purposes.
 The job will continue.

 DATASET   21 : space group P4/m m m (#123); Bravais tP (primitive tetrag.)

 getdim_nloc : COMMENT -
  Despite there is only a local part to pseudopotential(s),
  lmnmax and lnmax are set to 1.

 getdim_nloc : deduce lmnmax  =   1, lnmax  =   1,
                      lmnmaxso=   1, lnmaxso=   1.
 setmqgrid : COMMENT -
  The number of points "mqgrid" in reciprocal space used for the
  description of the pseudopotentials has been set automatically
  by abinit to :     3001.
 memory : analysis of memory needs
================================================================================
 Values of the parameters that define the memory need for DATASET 21.
   intxc =         0  ionmov =         2    iscf =         7 xclevel =         1
  lmnmax =         1   lnmax =         1   mband =         1  mffmem =         1
P  mgfft =        36   mkmem =         1 mpssoang=         1     mpw =      1389
  mqgrid =      3001   natom =         2    nfft =     46656    nkpt =         1
  nloalg =         4  nspden =         1 nspinor =         1  nsppol =         1
    nsym =        16  n1xccc =         0  ntypat =         1  occopt =         1
================================================================================
P This job should need less than                      13.366 Mbytes of memory.
  Rough estimation (10% accuracy) of disk space for files :
_ WF disk file :      0.023 Mbytes ; DEN or POT disk file :      0.358 Mbytes.
================================================================================

 Biggest array : f_fftgr(disk), with      5.6973 MBytes.
 memana : allocated an array of      5.697 Mbytes, for testing purposes.
 memana : allocated      13.366 Mbytes, for testing purposes.
 The job will continue.

 DATASET   22 : space group Pm -3 m (#221); Bravais cP (primitive cubic)

 getdim_nloc : COMMENT -
  Despite there is only a local part to pseudopotential(s),
  lmnmax and lnmax are set to 1.

 getdim_nloc : deduce lmnmax  =   1, lnmax  =   1,
                      lmnmaxso=   1, lnmaxso=   1.
 setmqgrid : COMMENT -
  The number of points "mqgrid" in reciprocal space used for the
  description of the pseudopotentials has been set automatically
  by abinit to :     3001.
 memory : analysis of memory needs
================================================================================
 Values of the parameters that define the memory need for DATASET 22.
   intxc =         0  ionmov =         0    iscf =         7 xclevel =         1
  lmnmax =         1   lnmax =         1   mband =         1  mffmem =         1
P  mgfft =        36   mkmem =         1 mpssoang=         1     mpw =      1389
  mqgrid =      3001   natom =         1    nfft =     46656    nkpt =         1
  nloalg =         4  nspden =         2 nspinor =         1  nsppol =         2
    nsym =        48  n1xccc =         0  ntypat =         1  occopt =         2
================================================================================
P This job should need less than                      20.497 Mbytes of memory.
  Rough estimation (10% accuracy) of disk space for files :
_ WF disk file :      0.044 Mbytes ; DEN or POT disk file :      0.714 Mbytes.
================================================================================

 Biggest array : f_fftgr(disk), with     11.3926 MBytes.
 memana : allocated an array of     11.393 Mbytes, for testing purposes.
 memana : allocated      20.497 Mbytes, for testing purposes.
 The job will continue.

 DATASET   31 : space group P4/m m m (#123); Bravais tP (primitive tetrag.)

 getdim_nloc : COMMENT -
  Despite there is only a local part to pseudopotential(s),
  lmnmax and lnmax are set to 1.

 getdim_nloc : deduce lmnmax  =   1, lnmax  =   1,
                      lmnmaxso=   1, lnmaxso=   1.
 setmqgrid : COMMENT -
  The number of points "mqgrid" in reciprocal space used for the
  description of the pseudopotentials has been set automatically
  by abinit to :     3001.
 memory : analysis of memory needs
================================================================================
 Values of the parameters that define the memory need for DATASET 31.
   intxc =         0  ionmov =         2    iscf =         7 xclevel =         1
  lmnmax =         1   lnmax =         1   mband =         1  mffmem =         1
P  mgfft =        45   mkmem =         1 mpssoang=         1     mpw =      2169
  mqgrid =      3001   natom =         2    nfft =     91125    nkpt =         1
  nloalg =         4  nspden =         1 nspinor =         1  nsppol =         1
    nsym =        16  n1xccc =         0  ntypat =         1  occopt =         1
================================================================================
P This job should need less than                      25.412 Mbytes of memory.
  Rough estimation (10% accuracy) of disk space for files :
_ WF disk file :      0.035 Mbytes ; DEN or POT disk file :      0.697 Mbytes.
================================================================================

 Biggest array : f_fftgr(disk), with     11.1257 MBytes.
 memana : allocated an array of     11.126 Mbytes, for testing purposes.
 memana : allocated      25.412 Mbytes, for testing purposes.
 The job will continue.

 DATASET   32 : space group Pm -3 m (#221); Bravais cP (primitive cubic)

 getdim_nloc : COMMENT -
  Despite there is only a local part to pseudopotential(s),
  lmnmax and lnmax are set to 1.

 getdim_nloc : deduce lmnmax  =   1, lnmax  =   1,
                      lmnmaxso=   1, lnmaxso=   1.
 setmqgrid : COMMENT -
  The number of points "mqgrid" in reciprocal space used for the
  description of the pseudopotentials has been set automatically
  by abinit to :     3001.
 memory : analysis of memory needs
================================================================================
 Values of the parameters that define the memory need for DATASET 32.
   intxc =         0  ionmov =         0    iscf =         7 xclevel =         1
  lmnmax =         1   lnmax =         1   mband =         1  mffmem =         1
P  mgfft =        45   mkmem =         1 mpssoang=         1     mpw =      2169
  mqgrid =      3001   natom =         1    nfft =     91125    nkpt =         1
  nloalg =         4  nspden =         2 nspinor =         1  nsppol =         2
    nsym =        48  n1xccc =         0  ntypat =         1  occopt =         2
================================================================================
P This job should need less than                      39.340 Mbytes of memory.
  Rough estimation (10% accuracy) of disk space for files :
_ WF disk file :      0.068 Mbytes ; DEN or POT disk file :      1.392 Mbytes.
================================================================================

 Biggest array : f_fftgr(disk), with     22.2493 MBytes.
 memana : allocated an array of     22.249 Mbytes, for testing purposes.
 memana : allocated      39.340 Mbytes, for testing purposes.
 The job will continue.

 DATASET   41 : space group P4/m m m (#123); Bravais tP (primitive tetrag.)

 getdim_nloc : COMMENT -
  Despite there is only a local part to pseudopotential(s),
  lmnmax and lnmax are set to 1.

 getdim_nloc : deduce lmnmax  =   1, lnmax  =   1,
                      lmnmaxso=   1, lnmaxso=   1.
 setmqgrid : COMMENT -
  The number of points "mqgrid" in reciprocal space used for the
  description of the pseudopotentials has been set automatically
  by abinit to :     3001.
 memory : analysis of memory needs
================================================================================
 Values of the parameters that define the memory need for DATASET 41.
   intxc =         0  ionmov =         2    iscf =         7 xclevel =         1
  lmnmax =         1   lnmax =         1   mband =         1  mffmem =         1
P  mgfft =        48   mkmem =         1 mpssoang=         1     mpw =      3016
  mqgrid =      3001   natom =         2    nfft =    110592    nkpt =         1
  nloalg =         4  nspden =         1 nspinor =         1  nsppol =         1
    nsym =        16  n1xccc =         0  ntypat =         1  occopt =         1
================================================================================
P This job should need less than                      31.024 Mbytes of memory.
  Rough estimation (10% accuracy) of disk space for files :
_ WF disk file :      0.048 Mbytes ; DEN or POT disk file :      0.846 Mbytes.
================================================================================

 Biggest array : f_fftgr(disk), with     13.5020 MBytes.
 memana : allocated an array of     13.502 Mbytes, for testing purposes.
 memana : allocated      31.024 Mbytes, for testing purposes.
 The job will continue.

 DATASET   42 : space group Pm -3 m (#221); Bravais cP (primitive cubic)

 getdim_nloc : COMMENT -
  Despite there is only a local part to pseudopotential(s),
  lmnmax and lnmax are set to 1.

 getdim_nloc : deduce lmnmax  =   1, lnmax  =   1,
                      lmnmaxso=   1, lnmaxso=   1.
 setmqgrid : COMMENT -
  The number of points "mqgrid" in reciprocal space used for the
  description of the pseudopotentials has been set automatically
  by abinit to :     3001.
 memory : analysis of memory needs
================================================================================
 Values of the parameters that define the memory need for DATASET 42.
   intxc =         0  ionmov =         0    iscf =         7 xclevel =         1
  lmnmax =         1   lnmax =         1   mband =         1  mffmem =         1
P  mgfft =        48   mkmem =         1 mpssoang=         1     mpw =      3016
  mqgrid =      3001   natom =         1    nfft =    110592    nkpt =         1
  nloalg =         4  nspden =         2 nspinor =         1  nsppol =         2
    nsym =        48  n1xccc =         0  ntypat =         1  occopt =         2
================================================================================
P This job should need less than                      47.935 Mbytes of memory.
  Rough estimation (10% accuracy) of disk space for files :
_ WF disk file :      0.094 Mbytes ; DEN or POT disk file :      1.690 Mbytes.
================================================================================

 Biggest array : f_fftgr(disk), with     27.0020 MBytes.
 memana : allocated an array of     27.002 Mbytes, for testing purposes.
 memana : allocated      47.935 Mbytes, for testing purposes.
 The job will continue.

 DATASET   51 : space group P4/m m m (#123); Bravais tP (primitive tetrag.)

 getdim_nloc : COMMENT -
  Despite there is only a local part to pseudopotential(s),
  lmnmax and lnmax are set to 1.

 getdim_nloc : deduce lmnmax  =   1, lnmax  =   1,
                      lmnmaxso=   1, lnmaxso=   1.
 setmqgrid : COMMENT -
  The number of points "mqgrid" in reciprocal space used for the
  description of the pseudopotentials has been set automatically
  by abinit to :     3001.
 memory : analysis of memory needs
================================================================================
 Values of the parameters that define the memory need for DATASET 51.
   intxc =         0  ionmov =         2    iscf =         7 xclevel =         1
  lmnmax =         1   lnmax =         1   mband =         1  mffmem =         1
P  mgfft =        50   mkmem =         1 mpssoang=         1     mpw =      3905
  mqgrid =      3001   natom =         2    nfft =    125000    nkpt =         1
  nloalg =         4  nspden =         1 nspinor =         1  nsppol =         1
    nsym =        16  n1xccc =         0  ntypat =         1  occopt =         1
================================================================================
P This job should need less than                      35.169 Mbytes of memory.
  Rough estimation (10% accuracy) of disk space for files :
_ WF disk file :      0.062 Mbytes ; DEN or POT disk file :      0.956 Mbytes.
================================================================================

 Biggest array : f_fftgr(disk), with     15.2608 MBytes.
 memana : allocated an array of     15.261 Mbytes, for testing purposes.
 memana : allocated      35.169 Mbytes, for testing purposes.
 The job will continue.

 DATASET   52 : space group Pm -3 m (#221); Bravais cP (primitive cubic)

 getdim_nloc : COMMENT -
  Despite there is only a local part to pseudopotential(s),
  lmnmax and lnmax are set to 1.

 getdim_nloc : deduce lmnmax  =   1, lnmax  =   1,
                      lmnmaxso=   1, lnmaxso=   1.
 setmqgrid : COMMENT -
  The number of points "mqgrid" in reciprocal space used for the
  description of the pseudopotentials has been set automatically
  by abinit to :     3001.
 memory : analysis of memory needs
================================================================================
 Values of the parameters that define the memory need for DATASET 52.
   intxc =         0  ionmov =         0    iscf =         7 xclevel =         1
  lmnmax =         1   lnmax =         1   mband =         1  mffmem =         1
P  mgfft =        50   mkmem =         1 mpssoang=         1     mpw =      3905
  mqgrid =      3001   natom =         1    nfft =    125000    nkpt =         1
  nloalg =         4  nspden =         2 nspinor =         1  nsppol =         2
    nsym =        48  n1xccc =         0  ntypat =         1  occopt =         2
================================================================================
P This job should need less than                      54.292 Mbytes of memory.
  Rough estimation (10% accuracy) of disk space for files :
_ WF disk file :      0.121 Mbytes ; DEN or POT disk file :      1.909 Mbytes.
================================================================================

 Biggest array : f_fftgr(disk), with     30.5196 MBytes.
 memana : allocated an array of     30.520 Mbytes, for testing purposes.
 memana : allocated      54.292 Mbytes, for testing purposes.
 The job will continue.

 DATASET   61 : space group P4/m m m (#123); Bravais tP (primitive tetrag.)

 getdim_nloc : COMMENT -
  Despite there is only a local part to pseudopotential(s),
  lmnmax and lnmax are set to 1.

 getdim_nloc : deduce lmnmax  =   1, lnmax  =   1,
                      lmnmaxso=   1, lnmaxso=   1.
 setmqgrid : COMMENT -
  The number of points "mqgrid" in reciprocal space used for the
  description of the pseudopotentials has been set automatically
  by abinit to :     3001.
 memory : analysis of memory needs
================================================================================
 Values of the parameters that define the memory need for DATASET 61.
   intxc =         0  ionmov =         2    iscf =         7 xclevel =         1
  lmnmax =         1   lnmax =         1   mband =         1  mffmem =         1
P  mgfft =        54   mkmem =         1 mpssoang=         1     mpw =      4922
  mqgrid =      3001   natom =         2    nfft =    157464    nkpt =         1
  nloalg =         4  nspden =         1 nspinor =         1  nsppol =         1
    nsym =        16  n1xccc =         0  ntypat =         1  occopt =         1
================================================================================
P This job should need less than                      44.190 Mbytes of memory.
  Rough estimation (10% accuracy) of disk space for files :
_ WF disk file :      0.077 Mbytes ; DEN or POT disk file :      1.203 Mbytes.
================================================================================

 Biggest array : f_fftgr(disk), with     19.2237 MBytes.
 memana : allocated an array of     19.224 Mbytes, for testing purposes.
 memana : allocated      44.190 Mbytes, for testing purposes.
 The job will continue.

 DATASET   62 : space group Pm -3 m (#221); Bravais cP (primitive cubic)

 getdim_nloc : COMMENT -
  Despite there is only a local part to pseudopotential(s),
  lmnmax and lnmax are set to 1.

 getdim_nloc : deduce lmnmax  =   1, lnmax  =   1,
                      lmnmaxso=   1, lnmaxso=   1.
 setmqgrid : COMMENT -
  The number of points "mqgrid" in reciprocal space used for the
  description of the pseudopotentials has been set automatically
  by abinit to :     3001.
 memory : analysis of memory needs
================================================================================
 Values of the parameters that define the memory need for DATASET 62.
   intxc =         0  ionmov =         0    iscf =         7 xclevel =         1
  lmnmax =         1   lnmax =         1   mband =         1  mffmem =         1
P  mgfft =        54   mkmem =         1 mpssoang=         1     mpw =      4922
  mqgrid =      3001   natom =         1    nfft =    157464    nkpt =         1
  nloalg =         4  nspden =         2 nspinor =         1  nsppol =         2
    nsym =        48  n1xccc =         0  ntypat =         1  occopt =         2
================================================================================
P This job should need less than                      68.281 Mbytes of memory.
  Rough estimation (10% accuracy) of disk space for files :
_ WF disk file :      0.152 Mbytes ; DEN or POT disk file :      2.405 Mbytes.
================================================================================

 Biggest array : f_fftgr(disk), with     38.4454 MBytes.
 memana : allocated an array of     38.445 Mbytes, for testing purposes.
 memana : allocated      68.281 Mbytes, for testing purposes.
 The job will continue.
--------------------------------------------------------------------------------
------------- Echo of variables that govern the present computation ------------
--------------------------------------------------------------------------------
-
- outvars: echo of selected default values                                      
-   accesswff0 =  0 , fftalg0 =112 , wfoptalg0 =  0
-
- outvars: echo of global parameters not present in the input file              
-  max_nthreads =    0
-
 -outvars: echo values of preprocessed input variables --------
 
 These variables are accessible in NetCDF format (tbase2_xo_OUT.nc)

            acell      1.0000000000E+01  1.0000000000E+01  1.0000000000E+01 Bohr
              amu      1.00794000E+00
           diemac      2.00000000E+00
             ecut11    1.00000000E+01 Hartree
             ecut12    1.00000000E+01 Hartree
             ecut21    1.50000000E+01 Hartree
             ecut22    1.50000000E+01 Hartree
             ecut31    2.00000000E+01 Hartree
             ecut32    2.00000000E+01 Hartree
             ecut41    2.50000000E+01 Hartree
             ecut42    2.50000000E+01 Hartree
             ecut51    3.00000000E+01 Hartree
             ecut52    3.00000000E+01 Hartree
             ecut61    3.50000000E+01 Hartree
             ecut62    3.50000000E+01 Hartree
           ionmov11         2
           ionmov12         0
           ionmov21         2
           ionmov22         0
           ionmov31         2
           ionmov32         0
           ionmov41         2
           ionmov42         0
           ionmov51         2
           ionmov52         0
           ionmov61         2
           ionmov62         0
           istwfk        2
           jdtset       11   12   21   22   31   32   41   42   51   52
                        61   62
           kptopt           0
P           mkmem           1
            natom11         2
            natom12         1
            natom21         2
            natom22         1
            natom31         2
            natom32         1
            natom41         2
            natom42         1
            natom51         2
            natom52         1
            natom61         2
            natom62         1
            nband11         1
            nband12         1       1
            nband21         1
            nband22         1       1
            nband31         1
            nband32         1       1
            nband41         1
            nband42         1       1
            nband51         1
            nband52         1       1
            nband61         1
            nband62         1       1
           ndtset          12
            ngfft11        30      30      30
            ngfft12        30      30      30
            ngfft21        36      36      36
            ngfft22        36      36      36
            ngfft31        45      45      45
            ngfft32        45      45      45
            ngfft41        48      48      48
            ngfft42        48      48      48
            ngfft51        50      50      50
            ngfft52        50      50      50
            ngfft61        54      54      54
            ngfft62        54      54      54
             nkpt           1
           nspden11         1
           nspden12         2
           nspden21         1
           nspden22         2
           nspden31         1
           nspden32         2
           nspden41         1
           nspden42         2
           nspden51         1
           nspden52         2
           nspden61         1
           nspden62         2
           nsppol11         1
           nsppol12         2
           nsppol21         1
           nsppol22         2
           nsppol31         1
           nsppol32         2
           nsppol41         1
           nsppol42         2
           nsppol51         1
           nsppol52         2
           nsppol61         1
           nsppol62         2
            nstep          10
             nsym11        16
             nsym12        48
             nsym21        16
             nsym22        48
             nsym31        16
             nsym32        48
             nsym41        16
             nsym42        48
             nsym51        16
             nsym52        48
             nsym61        16
             nsym62        48
            ntime11        10
            ntime12         1
            ntime21        10
            ntime22         1
            ntime31        10
            ntime32         1
            ntime41        10
            ntime42         1
            ntime51        10
            ntime52         1
            ntime61        10
            ntime62         1
           ntypat           1
              occ11    2.000000
              occ12    1.000000
                       0.000000
              occ21    2.000000
              occ22    1.000000
                       0.000000
              occ31    2.000000
              occ32    1.000000
                       0.000000
              occ41    2.000000
              occ42    1.000000
                       0.000000
              occ51    2.000000
              occ52    1.000000
                       0.000000
              occ61    2.000000
              occ62    1.000000
                       0.000000
           occopt11         1
           occopt12         2
           occopt21         1
           occopt22         2
           occopt31         1
           occopt32         2
           occopt41         1
           occopt42         2
           occopt51         1
           occopt52         2
           occopt61         1
           occopt62         2
        optforces11         1
        optforces12         2
        optforces21         1
        optforces22         2
        optforces31         1
        optforces32         2
        optforces41         1
        optforces42         2
        optforces51         1
        optforces52         2
        optforces61         1
        optforces62         2
          spgroup11       123
          spgroup12       221
          spgroup21       123
          spgroup22       221
          spgroup31       123
          spgroup32       221
          spgroup41       123
          spgroup42       221
          spgroup51       123
          spgroup52       221
          spgroup61       123
          spgroup62       221
           spinat12    0.0000000000E+00  0.0000000000E+00  1.0000000000E+00
           spinat22    0.0000000000E+00  0.0000000000E+00  1.0000000000E+00
           spinat32    0.0000000000E+00  0.0000000000E+00  1.0000000000E+00
           spinat42    0.0000000000E+00  0.0000000000E+00  1.0000000000E+00
           spinat52    0.0000000000E+00  0.0000000000E+00  1.0000000000E+00
           spinat62    0.0000000000E+00  0.0000000000E+00  1.0000000000E+00
           symafm11      1    1    1    1    1    1    1    1    1    1
                         1    1    1    1    1    1
           symafm12      1    1    1    1    1    1    1    1    1    1
                         1    1    1    1    1    1    1    1    1    1
                         1    1    1    1    1    1    1    1    1    1
                         1    1    1    1    1    1    1    1    1    1
                         1    1    1    1    1    1    1    1
           symafm21      1    1    1    1    1    1    1    1    1    1
                         1    1    1    1    1    1
           symafm22      1    1    1    1    1    1    1    1    1    1
                         1    1    1    1    1    1    1    1    1    1
                         1    1    1    1    1    1    1    1    1    1
                         1    1    1    1    1    1    1    1    1    1
                         1    1    1    1    1    1    1    1
           symafm31      1    1    1    1    1    1    1    1    1    1
                         1    1    1    1    1    1
           symafm32      1    1    1    1    1    1    1    1    1    1
                         1    1    1    1    1    1    1    1    1    1
                         1    1    1    1    1    1    1    1    1    1
                         1    1    1    1    1    1    1    1    1    1
                         1    1    1    1    1    1    1    1
           symafm41      1    1    1    1    1    1    1    1    1    1
                         1    1    1    1    1    1
           symafm42      1    1    1    1    1    1    1    1    1    1
                         1    1    1    1    1    1    1    1    1    1
                         1    1    1    1    1    1    1    1    1    1
                         1    1    1    1    1    1    1    1    1    1
                         1    1    1    1    1    1    1    1
           symafm51      1    1    1    1    1    1    1    1    1    1
                         1    1    1    1    1    1
           symafm52      1    1    1    1    1    1    1    1    1    1
                         1    1    1    1    1    1    1    1    1    1
                         1    1    1    1    1    1    1    1    1    1
                         1    1    1    1    1    1    1    1    1    1
                         1    1    1    1    1    1    1    1
           symafm61      1    1    1    1    1    1    1    1    1    1
                         1    1    1    1    1    1
           symafm62      1    1    1    1    1    1    1    1    1    1
                         1    1    1    1    1    1    1    1    1    1
                         1    1    1    1    1    1    1    1    1    1
                         1    1    1    1    1    1    1    1    1    1
                         1    1    1    1    1    1    1    1
           symrel11    1  0  0   0  1  0   0  0  1      -1  0  0   0 -1  0   0  0 -1
                      -1  0  0   0  1  0   0  0 -1       1  0  0   0 -1  0   0  0  1
                      -1  0  0   0 -1  0   0  0  1       1  0  0   0  1  0   0  0 -1
                       1  0  0   0 -1  0   0  0 -1      -1  0  0   0  1  0   0  0  1
                       1  0  0   0  0  1   0  1  0      -1  0  0   0  0 -1   0 -1  0
                      -1  0  0   0  0  1   0 -1  0       1  0  0   0  0 -1   0  1  0
                      -1  0  0   0  0 -1   0  1  0       1  0  0   0  0  1   0 -1  0
                       1  0  0   0  0 -1   0 -1  0      -1  0  0   0  0  1   0  1  0
           symrel12    1  0  0   0  1  0   0  0  1      -1  0  0   0 -1  0   0  0 -1
                      -1  0  0   0  1  0   0  0 -1       1  0  0   0 -1  0   0  0  1
                      -1  0  0   0 -1  0   0  0  1       1  0  0   0  1  0   0  0 -1
                       1  0  0   0 -1  0   0  0 -1      -1  0  0   0  1  0   0  0  1
                       0  1  0   1  0  0   0  0  1       0 -1  0  -1  0  0   0  0 -1
                       0 -1  0   1  0  0   0  0 -1       0  1  0  -1  0  0   0  0  1
                       0 -1  0  -1  0  0   0  0  1       0  1  0   1  0  0   0  0 -1
                       0  1  0  -1  0  0   0  0 -1       0 -1  0   1  0  0   0  0  1
                       0  0  1   1  0  0   0  1  0       0  0 -1  -1  0  0   0 -1  0
                       0  0 -1   1  0  0   0 -1  0       0  0  1  -1  0  0   0  1  0
                       0  0 -1  -1  0  0   0  1  0       0  0  1   1  0  0   0 -1  0
                       0  0  1  -1  0  0   0 -1  0       0  0 -1   1  0  0   0  1  0
                       1  0  0   0  0  1   0  1  0      -1  0  0   0  0 -1   0 -1  0
                      -1  0  0   0  0  1   0 -1  0       1  0  0   0  0 -1   0  1  0
                      -1  0  0   0  0 -1   0  1  0       1  0  0   0  0  1   0 -1  0
                       1  0  0   0  0 -1   0 -1  0      -1  0  0   0  0  1   0  1  0
                       0  1  0   0  0  1   1  0  0       0 -1  0   0  0 -1  -1  0  0
                       0 -1  0   0  0  1  -1  0  0       0  1  0   0  0 -1   1  0  0
                       0 -1  0   0  0 -1   1  0  0       0  1  0   0  0  1  -1  0  0
                       0  1  0   0  0 -1  -1  0  0       0 -1  0   0  0  1   1  0  0
                       0  0  1   0  1  0   1  0  0       0  0 -1   0 -1  0  -1  0  0
                       0  0 -1   0  1  0  -1  0  0       0  0  1   0 -1  0   1  0  0
                       0  0 -1   0 -1  0   1  0  0       0  0  1   0  1  0  -1  0  0
                       0  0  1   0 -1  0  -1  0  0       0  0 -1   0  1  0   1  0  0
[...]
                       0.0000000  0.0000000  0.0000000     0.0000000  0.0000000  0.0000000
                       0.0000000  0.0000000  0.0000000     0.0000000  0.0000000  0.0000000
                       0.0000000  0.0000000  0.0000000     0.0000000  0.0000000  0.0000000
                       0.0000000  0.0000000  0.0000000     0.0000000  0.0000000  0.0000000
                       0.0000000  0.0000000  0.0000000     0.0000000  0.0000000  0.0000000
                       0.0000000  0.0000000  0.0000000     0.0000000  0.0000000  0.0000000
                       0.0000000  0.0000000  0.0000000     0.0000000  0.0000000  0.0000000
                       0.0000000  0.0000000  0.0000000     0.0000000  0.0000000  0.0000000
                       0.0000000  0.0000000  0.0000000     0.0000000  0.0000000  0.0000000
                       0.0000000  0.0000000  0.0000000     0.0000000  0.0000000  0.0000000
                       0.0000000  0.0000000  0.0000000     0.0000000  0.0000000  0.0000000
                       0.0000000  0.0000000  0.0000000     0.0000000  0.0000000  0.0000000
                       0.0000000  0.0000000  0.0000000     0.0000000  0.0000000  0.0000000
                       0.0000000  0.0000000  0.0000000     0.0000000  0.0000000  0.0000000
                       0.0000000  0.0000000  0.0000000     0.0000000  0.0000000  0.0000000
                       0.0000000  0.0000000  0.0000000     0.0000000  0.0000000  0.0000000
                       0.0000000  0.0000000  0.0000000     0.0000000  0.0000000  0.0000000
                       0.0000000  0.0000000  0.0000000     0.0000000  0.0000000  0.0000000
                       0.0000000  0.0000000  0.0000000     0.0000000  0.0000000  0.0000000
                       0.0000000  0.0000000  0.0000000     0.0000000  0.0000000  0.0000000
            tnons41    0.0000000  0.0000000  0.0000000     0.0000000  0.0000000  0.0000000
                       0.0000000  0.0000000  0.0000000     0.0000000  0.0000000  0.0000000
                       0.0000000  0.0000000  0.0000000     0.0000000  0.0000000  0.0000000
                       0.0000000  0.0000000  0.0000000     0.0000000  0.0000000  0.0000000
                       0.0000000  0.0000000  0.0000000     0.0000000  0.0000000  0.0000000
                       0.0000000  0.0000000  0.0000000     0.0000000  0.0000000  0.0000000
                       0.0000000  0.0000000  0.0000000     0.0000000  0.0000000  0.0000000
                       0.0000000  0.0000000  0.0000000     0.0000000  0.0000000  0.0000000
            tnons42    0.0000000  0.0000000  0.0000000     0.0000000  0.0000000  0.0000000
                       0.0000000  0.0000000  0.0000000     0.0000000  0.0000000  0.0000000
                       0.0000000  0.0000000  0.0000000     0.0000000  0.0000000  0.0000000
                       0.0000000  0.0000000  0.0000000     0.0000000  0.0000000  0.0000000
                       0.0000000  0.0000000  0.0000000     0.0000000  0.0000000  0.0000000
                       0.0000000  0.0000000  0.0000000     0.0000000  0.0000000  0.0000000
                       0.0000000  0.0000000  0.0000000     0.0000000  0.0000000  0.0000000
                       0.0000000  0.0000000  0.0000000     0.0000000  0.0000000  0.0000000
                       0.0000000  0.0000000  0.0000000     0.0000000  0.0000000  0.0000000
                       0.0000000  0.0000000  0.0000000     0.0000000  0.0000000  0.0000000
                       0.0000000  0.0000000  0.0000000     0.0000000  0.0000000  0.0000000
                       0.0000000  0.0000000  0.0000000     0.0000000  0.0000000  0.0000000
                       0.0000000  0.0000000  0.0000000     0.0000000  0.0000000  0.0000000
                       0.0000000  0.0000000  0.0000000     0.0000000  0.0000000  0.0000000
                       0.0000000  0.0000000  0.0000000     0.0000000  0.0000000  0.0000000
                       0.0000000  0.0000000  0.0000000     0.0000000  0.0000000  0.0000000
                       0.0000000  0.0000000  0.0000000     0.0000000  0.0000000  0.0000000
                       0.0000000  0.0000000  0.0000000     0.0000000  0.0000000  0.0000000
                       0.0000000  0.0000000  0.0000000     0.0000000  0.0000000  0.0000000
                       0.0000000  0.0000000  0.0000000     0.0000000  0.0000000  0.0000000
                       0.0000000  0.0000000  0.0000000     0.0000000  0.0000000  0.0000000
                       0.0000000  0.0000000  0.0000000     0.0000000  0.0000000  0.0000000
                       0.0000000  0.0000000  0.0000000     0.0000000  0.0000000  0.0000000
                       0.0000000  0.0000000  0.0000000     0.0000000  0.0000000  0.0000000
            tnons51    0.0000000  0.0000000  0.0000000     0.0000000  0.0000000  0.0000000
                       0.0000000  0.0000000  0.0000000     0.0000000  0.0000000  0.0000000
                       0.0000000  0.0000000  0.0000000     0.0000000  0.0000000  0.0000000
                       0.0000000  0.0000000  0.0000000     0.0000000  0.0000000  0.0000000
                       0.0000000  0.0000000  0.0000000     0.0000000  0.0000000  0.0000000
                       0.0000000  0.0000000  0.0000000     0.0000000  0.0000000  0.0000000
                       0.0000000  0.0000000  0.0000000     0.0000000  0.0000000  0.0000000
                       0.0000000  0.0000000  0.0000000     0.0000000  0.0000000  0.0000000
            tnons52    0.0000000  0.0000000  0.0000000     0.0000000  0.0000000  0.0000000
                       0.0000000  0.0000000  0.0000000     0.0000000  0.0000000  0.0000000
                       0.0000000  0.0000000  0.0000000     0.0000000  0.0000000  0.0000000
                       0.0000000  0.0000000  0.0000000     0.0000000  0.0000000  0.0000000
                       0.0000000  0.0000000  0.0000000     0.0000000  0.0000000  0.0000000
                       0.0000000  0.0000000  0.0000000     0.0000000  0.0000000  0.0000000
                       0.0000000  0.0000000  0.0000000     0.0000000  0.0000000  0.0000000
                       0.0000000  0.0000000  0.0000000     0.0000000  0.0000000  0.0000000
                       0.0000000  0.0000000  0.0000000     0.0000000  0.0000000  0.0000000
                       0.0000000  0.0000000  0.0000000     0.0000000  0.0000000  0.0000000
                       0.0000000  0.0000000  0.0000000     0.0000000  0.0000000  0.0000000
                       0.0000000  0.0000000  0.0000000     0.0000000  0.0000000  0.0000000
                       0.0000000  0.0000000  0.0000000     0.0000000  0.0000000  0.0000000
                       0.0000000  0.0000000  0.0000000     0.0000000  0.0000000  0.0000000
                       0.0000000  0.0000000  0.0000000     0.0000000  0.0000000  0.0000000
                       0.0000000  0.0000000  0.0000000     0.0000000  0.0000000  0.0000000
                       0.0000000  0.0000000  0.0000000     0.0000000  0.0000000  0.0000000
                       0.0000000  0.0000000  0.0000000     0.0000000  0.0000000  0.0000000
                       0.0000000  0.0000000  0.0000000     0.0000000  0.0000000  0.0000000
                       0.0000000  0.0000000  0.0000000     0.0000000  0.0000000  0.0000000
                       0.0000000  0.0000000  0.0000000     0.0000000  0.0000000  0.0000000
                       0.0000000  0.0000000  0.0000000     0.0000000  0.0000000  0.0000000
                       0.0000000  0.0000000  0.0000000     0.0000000  0.0000000  0.0000000
                       0.0000000  0.0000000  0.0000000     0.0000000  0.0000000  0.0000000
            tnons61    0.0000000  0.0000000  0.0000000     0.0000000  0.0000000  0.0000000
                       0.0000000  0.0000000  0.0000000     0.0000000  0.0000000  0.0000000
                       0.0000000  0.0000000  0.0000000     0.0000000  0.0000000  0.0000000
                       0.0000000  0.0000000  0.0000000     0.0000000  0.0000000  0.0000000
                       0.0000000  0.0000000  0.0000000     0.0000000  0.0000000  0.0000000
                       0.0000000  0.0000000  0.0000000     0.0000000  0.0000000  0.0000000
                       0.0000000  0.0000000  0.0000000     0.0000000  0.0000000  0.0000000
                       0.0000000  0.0000000  0.0000000     0.0000000  0.0000000  0.0000000
            tnons62    0.0000000  0.0000000  0.0000000     0.0000000  0.0000000  0.0000000
                       0.0000000  0.0000000  0.0000000     0.0000000  0.0000000  0.0000000
                       0.0000000  0.0000000  0.0000000     0.0000000  0.0000000  0.0000000
                       0.0000000  0.0000000  0.0000000     0.0000000  0.0000000  0.0000000
                       0.0000000  0.0000000  0.0000000     0.0000000  0.0000000  0.0000000
                       0.0000000  0.0000000  0.0000000     0.0000000  0.0000000  0.0000000
                       0.0000000  0.0000000  0.0000000     0.0000000  0.0000000  0.0000000
                       0.0000000  0.0000000  0.0000000     0.0000000  0.0000000  0.0000000
                       0.0000000  0.0000000  0.0000000     0.0000000  0.0000000  0.0000000
                       0.0000000  0.0000000  0.0000000     0.0000000  0.0000000  0.0000000
                       0.0000000  0.0000000  0.0000000     0.0000000  0.0000000  0.0000000
                       0.0000000  0.0000000  0.0000000     0.0000000  0.0000000  0.0000000
                       0.0000000  0.0000000  0.0000000     0.0000000  0.0000000  0.0000000
                       0.0000000  0.0000000  0.0000000     0.0000000  0.0000000  0.0000000
                       0.0000000  0.0000000  0.0000000     0.0000000  0.0000000  0.0000000
                       0.0000000  0.0000000  0.0000000     0.0000000  0.0000000  0.0000000
                       0.0000000  0.0000000  0.0000000     0.0000000  0.0000000  0.0000000
                       0.0000000  0.0000000  0.0000000     0.0000000  0.0000000  0.0000000
                       0.0000000  0.0000000  0.0000000     0.0000000  0.0000000  0.0000000
                       0.0000000  0.0000000  0.0000000     0.0000000  0.0000000  0.0000000
                       0.0000000  0.0000000  0.0000000     0.0000000  0.0000000  0.0000000
                       0.0000000  0.0000000  0.0000000     0.0000000  0.0000000  0.0000000
                       0.0000000  0.0000000  0.0000000     0.0000000  0.0000000  0.0000000
                       0.0000000  0.0000000  0.0000000     0.0000000  0.0000000  0.0000000
           toldfe11    0.00000000E+00 Hartree
           toldfe12    1.00000000E-06 Hartree
           toldfe21    0.00000000E+00 Hartree
           toldfe22    1.00000000E-06 Hartree
           toldfe31    0.00000000E+00 Hartree
           toldfe32    1.00000000E-06 Hartree
           toldfe41    0.00000000E+00 Hartree
           toldfe42    1.00000000E-06 Hartree
           toldfe51    0.00000000E+00 Hartree
           toldfe52    1.00000000E-06 Hartree
           toldfe61    0.00000000E+00 Hartree
           toldfe62    1.00000000E-06 Hartree
           toldff11    5.00000000E-05
           toldff12    0.00000000E+00
           toldff21    5.00000000E-05
           toldff22    0.00000000E+00
           toldff31    5.00000000E-05
           toldff32    0.00000000E+00
           toldff41    5.00000000E-05
           toldff42    0.00000000E+00
           toldff51    5.00000000E-05
           toldff52    0.00000000E+00
           toldff61    5.00000000E-05
           toldff62    0.00000000E+00
           tolmxf11    5.00000000E-04
           tolmxf12    5.00000000E-05
           tolmxf21    5.00000000E-04
           tolmxf22    5.00000000E-05
           tolmxf31    5.00000000E-04
           tolmxf32    5.00000000E-05
           tolmxf41    5.00000000E-04
           tolmxf42    5.00000000E-05
           tolmxf51    5.00000000E-04
           tolmxf52    5.00000000E-05
           tolmxf61    5.00000000E-04
           tolmxf62    5.00000000E-05
            typat11    1  1
            typat12    1
            typat21    1  1
            typat22    1
            typat31    1  1
            typat32    1
            typat41    1  1
            typat42    1
            typat51    1  1
            typat52    1
            typat61    1  1
            typat62    1
           xangst11   -4.0230316853E-01  0.0000000000E+00  0.0000000000E+00
                       4.0230316853E-01  0.0000000000E+00  0.0000000000E+00
           xangst12    0.0000000000E+00  0.0000000000E+00  0.0000000000E+00
           xangst21   -3.9733635614E-01  0.0000000000E+00  0.0000000000E+00
                       3.9733635614E-01  0.0000000000E+00  0.0000000000E+00
           xangst22    0.0000000000E+00  0.0000000000E+00  0.0000000000E+00
           xangst31   -3.9143621625E-01  0.0000000000E+00  0.0000000000E+00
                       3.9143621625E-01  0.0000000000E+00  0.0000000000E+00
           xangst32    0.0000000000E+00  0.0000000000E+00  0.0000000000E+00
           xangst41   -3.8788448512E-01  0.0000000000E+00  0.0000000000E+00
                       3.8788448512E-01  0.0000000000E+00  0.0000000000E+00
           xangst42    0.0000000000E+00  0.0000000000E+00  0.0000000000E+00
           xangst51   -3.8628338590E-01  0.0000000000E+00  0.0000000000E+00
                       3.8628338590E-01  0.0000000000E+00  0.0000000000E+00
           xangst52    0.0000000000E+00  0.0000000000E+00  0.0000000000E+00
           xangst61   -3.8603882648E-01  0.0000000000E+00  0.0000000000E+00
                       3.8603882648E-01  0.0000000000E+00  0.0000000000E+00
           xangst62    0.0000000000E+00  0.0000000000E+00  0.0000000000E+00
            xcart11   -7.6024281092E-01  0.0000000000E+00  0.0000000000E+00
                       7.6024281092E-01  0.0000000000E+00  0.0000000000E+00
            xcart12    0.0000000000E+00  0.0000000000E+00  0.0000000000E+00
            xcart21   -7.5085689575E-01  0.0000000000E+00  0.0000000000E+00
                       7.5085689575E-01  0.0000000000E+00  0.0000000000E+00
            xcart22    0.0000000000E+00  0.0000000000E+00  0.0000000000E+00
            xcart31   -7.3970724721E-01  0.0000000000E+00  0.0000000000E+00
                       7.3970724721E-01  0.0000000000E+00  0.0000000000E+00
            xcart32    0.0000000000E+00  0.0000000000E+00  0.0000000000E+00
            xcart41   -7.3299544807E-01  0.0000000000E+00  0.0000000000E+00
                       7.3299544807E-01  0.0000000000E+00  0.0000000000E+00
            xcart42    0.0000000000E+00  0.0000000000E+00  0.0000000000E+00
            xcart51   -7.2996980904E-01  0.0000000000E+00  0.0000000000E+00
                       7.2996980904E-01  0.0000000000E+00  0.0000000000E+00
            xcart52    0.0000000000E+00  0.0000000000E+00  0.0000000000E+00
            xcart61   -7.2950765871E-01  0.0000000000E+00  0.0000000000E+00
                       7.2950765871E-01  0.0000000000E+00  0.0000000000E+00
            xcart62    0.0000000000E+00  0.0000000000E+00  0.0000000000E+00
             xred11   -7.6024281092E-02  0.0000000000E+00  0.0000000000E+00
                       7.6024281092E-02  0.0000000000E+00  0.0000000000E+00
             xred12    0.0000000000E+00  0.0000000000E+00  0.0000000000E+00
             xred21   -7.5085689575E-02  0.0000000000E+00  0.0000000000E+00
                       7.5085689575E-02  0.0000000000E+00  0.0000000000E+00
             xred22    0.0000000000E+00  0.0000000000E+00  0.0000000000E+00
             xred31   -7.3970724721E-02  0.0000000000E+00  0.0000000000E+00
                       7.3970724721E-02  0.0000000000E+00  0.0000000000E+00
             xred32    0.0000000000E+00  0.0000000000E+00  0.0000000000E+00
             xred41   -7.3299544807E-02  0.0000000000E+00  0.0000000000E+00
                       7.3299544807E-02  0.0000000000E+00  0.0000000000E+00
             xred42    0.0000000000E+00  0.0000000000E+00  0.0000000000E+00
             xred51   -7.2996980904E-02  0.0000000000E+00  0.0000000000E+00
                       7.2996980904E-02  0.0000000000E+00  0.0000000000E+00
             xred52    0.0000000000E+00  0.0000000000E+00  0.0000000000E+00
             xred61   -7.2950765871E-02  0.0000000000E+00  0.0000000000E+00
                       7.2950765871E-02  0.0000000000E+00  0.0000000000E+00
             xred62    0.0000000000E+00  0.0000000000E+00  0.0000000000E+00
            znucl        1.00000

================================================================================
  

================================================================================

 Suggested references for the acknowledgment of ABINIT usage.

 The users of ABINIT have little formal obligations with respect to the ABINIT group
 (those specified in the GNU General Public License, http://www.gnu.org/copyleft/gpl.txt).
 However, it is common practice in the scientific literature,
 to acknowledge the efforts of people that have made the research possible.
 In this spirit, please find below suggested citations of work written by ABINIT developers,
 corresponding to implementations inside of ABINIT that you have used in the present run.
 Note also that it will be of great value to readers of publications presenting these results,
 to read papers enabling them to understand the theoretical formalism and details
 of the ABINIT implementation.
 For information on why they are suggested, see also http://www.abinit.org/about/?text=acknowledgments.

 [1] ABINIT : First-principles approach of materials and nanosystem properties.
 X. Gonze, B. Amadon, P.-M. Anglade, J.-M. Beuken, F. Bottin, P. Boulanger, F. Bruneval,
 D. Caliste, R. Caracas, M. Cote, T. Deutsch, L. Genovese, Ph. Ghosez, M. Giantomassi
 S. Goedecker, D.R. Hamann, P. Hermet, F. Jollet, G. Jomard, S. Leroux, M. Mancini, S. Mazevet,
 M.J.T. Oliveira, G. Onida, Y. Pouillon, T. Rangel, G.-M. Rignanese, D. Sangalli, R. Shaltaf,
 M. Torrent, M.J. Verstraete, G. Zerah, J.W. Zwanziger
 Computer Phys. Comm. 180, 2582-2615 (2009).
 Comment : the third generic paper describing the ABINIT project.
 Note that a version of this paper, that is not formatted for Computer Phys. Comm. 
 is available at http://www.abinit.org/about/ABINIT_CPC_v10.pdf .
 The licence allows the authors to put it on the Web.

 [2] A brief introduction to the ABINIT software package.
 X. Gonze, G.-M. Rignanese, M. Verstraete, J.-M. Beuken, Y. Pouillon, R. Caracas, F. Jollet,
 M. Torrent, G. Zerah, M. Mikami, Ph. Ghosez, M. Veithen, J.-Y. Raty, V. Olevano, F. Bruneval,
 L. Reining, R. Godby, G. Onida, D.R. Hamann, and D.C. Allan.
 Z. Kristallogr. 220, 558-562 (2005).
 Comment : the second generic paper describing the ABINIT project. Note that this paper
 should be cited especially if you are using the GW part of ABINIT, as several authors
 of this part are not in the list of authors of the first or third paper.
 The .pdf of the latter paper is available at http://www.abinit.org/about/zfk_0505-06_558-562.pdf.
 Note that it should not redistributed (Copyright by Oldenburg Wissenshaftverlag,
 the licence allows the authors to put it on the Web).


 And optionally :

 [3] First-principles computation of material properties : the ABINIT software project. 
 X. Gonze, J.-M. Beuken, R. Caracas, F. Detraux, M. Fuchs, G.-M. Rignanese, L. Sindic,
 M. Verstraete, G. Zerah, F. Jollet, M. Torrent, A. Roy, M. Mikami, Ph. Ghosez, J.-Y. Raty, D.C. Allan.
 Computational Materials Science 25, 478-492 (2002). http://dx.doi.org/10.1016/S0927-0256(02)00325-7
 Comment : the original paper describing the ABINIT project.

 [4] Fast radix 2, 3, 4 and 5 kernels for Fast Fourier Transformations
 on computers with overlapping multiply-add instructions.
 S. Goedecker, SIAM J. on Scientific Computing 18, 1605 (1997).
 Proc.   0 individual time (sec): cpu=         21.5  wall=         24.1

 Calculation completed.
.Delivered   23 WARNINGs and  60 COMMENTs to log file.
