
.Version 7.4.3 of ABINIT 
.(MPI version, prepared for a i686_cygwin_gnu4.7 computer) 

.Copyright (C) 1998-2013 ABINIT group . 
 ABINIT comes with ABSOLUTELY NO WARRANTY.
 It is free software, and you are welcome to redistribute it
 under certain conditions (GNU General Public License,
 see ~abinit/COPYING or http://www.gnu.org/copyleft/gpl.txt).

 ABINIT is a project of the Universite Catholique de Louvain,
 Corning Inc. and other collaborators, see ~abinit/doc/developers/contributors.txt .
 Please read ~abinit/doc/users/acknowledgments.html for suggested
 acknowledgments of the ABINIT effort.
 For more information, see http://www.abinit.org .

.Starting date : Mon  4 Jun 2018.
- ( at 12h57 )
  

 herald :  WARNING -
  The starting date is more than 3 years after the initial release
  of this version of ABINIT, namely Aug 2013.
  This version of ABINIT is not supported anymore.
  Action : please, switch to a more recent version of ABINIT.
- input  file    -> tbase4_4.in
- output file    -> tbase4_4.out
- root for input  files -> tbase4_xi
- root for output files -> tbase4_xo


 Symmetries : the unit cell is not primitive
================================================================================
 Values of the parameters that define the memory need of the present run
   intxc =         0  ionmov =         0    iscf =         7 xclevel =         1
  lmnmax =         3   lnmax =         3   mband =         4  mffmem =         1
P  mgfft =        18   mkmem =        12 mpssoang=         3     mpw =       152
  mqgrid =      3001   natom =         2    nfft =      2592    nkpt =        12
  nloalg =         4  nspden =         1 nspinor =         1  nsppol =         1
    nsym =        32  n1xccc =         0  ntypat =         1  occopt =         4
================================================================================
P This job should need less than                       2.099 Mbytes of memory.
  Rough estimation (10% accuracy) of disk space for files :
_ WF disk file :      0.113 Mbytes ; DEN or POT disk file :      0.022 Mbytes.
================================================================================

--------------------------------------------------------------------------------
------------- Echo of variables that govern the present computation ------------
--------------------------------------------------------------------------------
-
- outvars: echo of selected default values                                      
-   accesswff0 =  0 , fftalg0 =112 , wfoptalg0 =  0
-
- outvars: echo of global parameters not present in the input file              
-  max_nthreads =    0
-
 -outvars: echo values of preprocessed input variables --------
            acell      7.5055909000E+00  7.5055909000E+00  7.5055909000E+00 Bohr
              amu      2.69815390E+01
             ecut      6.00000000E+00 Hartree
              kpt      0.00000000E+00  1.25000000E-01  1.25000000E-01
                       0.00000000E+00  3.75000000E-01  1.25000000E-01
                       1.25000000E-01  2.50000000E-01  1.25000000E-01
                       1.25000000E-01  5.00000000E-01  1.25000000E-01
                       2.50000000E-01  3.75000000E-01  1.25000000E-01
                       3.75000000E-01  5.00000000E-01  1.25000000E-01
                       0.00000000E+00  1.25000000E-01  3.75000000E-01
                       0.00000000E+00  3.75000000E-01  3.75000000E-01
                       1.25000000E-01  2.50000000E-01  3.75000000E-01
                       1.25000000E-01  5.00000000E-01  3.75000000E-01
                       2.50000000E-01  3.75000000E-01  3.75000000E-01
                       3.75000000E-01  5.00000000E-01  3.75000000E-01
         kptrlatt        4   -4    0      4    4    0      0    0    4
          kptrlen      3.00223636E+01
P           mkmem          12
            natom           2
            nband           4
            ngfft          12      12      18
             nkpt          12
            nstep          10
             nsym          32
           ntypat           1
              occ      2.000000  2.000000  2.000000  0.000000
                       2.000000  2.000000  2.000000  0.000000
                       2.000000  2.000000  2.000000  0.000000
                       2.000000  2.000000  2.000000  0.000000
                       2.000000  2.000000  2.000000  0.000000
                       2.000000  2.000000  2.000000  0.000000
                       2.000000  2.000000  2.000000  0.000000
                       2.000000  2.000000  2.000000  0.000000
                       2.000000  2.000000  2.000000  0.000000
                       2.000000  2.000000  2.000000  0.000000
                       2.000000  2.000000  2.000000  0.000000
                       2.000000  2.000000  2.000000  0.000000
           occopt           4
            rprim      5.0000000000E-01 -5.0000000000E-01  0.0000000000E+00
                       5.0000000000E-01  5.0000000000E-01  0.0000000000E+00
                       0.0000000000E+00  0.0000000000E+00  1.0000000000E+00
           shiftk     -5.00000000E-01  5.00000000E-01  5.00000000E-01
           symrel      1  0  0   0  1  0   0  0  1       1  0  0   0  1  0   0  0  1
                      -1  0  0   0 -1  0   0  0 -1      -1  0  0   0 -1  0   0  0 -1
                      -1  0  0   0  1  0   0  0 -1      -1  0  0   0  1  0   0  0 -1
                       1  0  0   0 -1  0   0  0  1       1  0  0   0 -1  0   0  0  1
                      -1  0  0   0 -1  0   0  0  1      -1  0  0   0 -1  0   0  0  1
                       1  0  0   0  1  0   0  0 -1       1  0  0   0  1  0   0  0 -1
                       1  0  0   0 -1  0   0  0 -1       1  0  0   0 -1  0   0  0 -1
                      -1  0  0   0  1  0   0  0  1      -1  0  0   0  1  0   0  0  1
                       0  1  0   1  0  0   0  0  1       0  1  0   1  0  0   0  0  1
                       0 -1  0  -1  0  0   0  0 -1       0 -1  0  -1  0  0   0  0 -1
                       0 -1  0   1  0  0   0  0 -1       0 -1  0   1  0  0   0  0 -1
                       0  1  0  -1  0  0   0  0  1       0  1  0  -1  0  0   0  0  1
                       0 -1  0  -1  0  0   0  0  1       0 -1  0  -1  0  0   0  0  1
                       0  1  0   1  0  0   0  0 -1       0  1  0   1  0  0   0  0 -1
                       0  1  0  -1  0  0   0  0 -1       0  1  0  -1  0  0   0  0 -1
                       0 -1  0   1  0  0   0  0  1       0 -1  0   1  0  0   0  0  1
            tnons      0.0000000  0.0000000  0.0000000     0.5000000  0.5000000  0.5000000
                       0.0000000  0.0000000  0.0000000     0.5000000  0.5000000  0.5000000
                       0.0000000  0.0000000  0.0000000     0.5000000  0.5000000  0.5000000
                       0.0000000  0.0000000  0.0000000     0.5000000  0.5000000  0.5000000
                       0.0000000  0.0000000  0.0000000     0.5000000  0.5000000  0.5000000
                       0.0000000  0.0000000  0.0000000     0.5000000  0.5000000  0.5000000
                       0.0000000  0.0000000  0.0000000     0.5000000  0.5000000  0.5000000
                       0.0000000  0.0000000  0.0000000     0.5000000  0.5000000  0.5000000
                       0.0000000  0.0000000  0.0000000     0.5000000  0.5000000  0.5000000
                       0.0000000  0.0000000  0.0000000     0.5000000  0.5000000  0.5000000
                       0.0000000  0.0000000  0.0000000     0.5000000  0.5000000  0.5000000
                       0.0000000  0.0000000  0.0000000     0.5000000  0.5000000  0.5000000
                       0.0000000  0.0000000  0.0000000     0.5000000  0.5000000  0.5000000
                       0.0000000  0.0000000  0.0000000     0.5000000  0.5000000  0.5000000
                       0.0000000  0.0000000  0.0000000     0.5000000  0.5000000  0.5000000
                       0.0000000  0.0000000  0.0000000     0.5000000  0.5000000  0.5000000
           toldfe      1.00000000E-06 Hartree
            typat      1  1
              wtk        0.06250    0.06250    0.12500    0.06250    0.12500    0.06250
                         0.06250    0.06250    0.12500    0.06250    0.12500    0.06250
           xangst      0.0000000000E+00  0.0000000000E+00  0.0000000000E+00
                       1.9858938206E+00  0.0000000000E+00  1.9858938206E+00
            xcart      0.0000000000E+00  0.0000000000E+00  0.0000000000E+00
                       3.7527954500E+00  0.0000000000E+00  3.7527954500E+00
             xred      0.0000000000E+00  0.0000000000E+00  0.0000000000E+00
                       5.0000000000E-01  5.0000000000E-01  5.0000000000E-01
            znucl       13.00000

================================================================================

 chkinp: Checking input parameters for consistency.

================================================================================
== DATASET  1 ==================================================================
-   nproc =    1

 Exchange-correlation functional for the present dataset will be:
  LDA: new Teter (4/93) with spin-polarized option - ixc=1
 Citation for XC functional:
  S. Goedecker, M. Teter, J. Huetter, PRB 54, 1703 (1996)

 Real(R)+Recip(G) space primitive vectors, cartesian coordinates (Bohr,Bohr^-1):
 R(1)=  3.7527955 -3.7527954  0.0000000  G(1)=  0.1332340 -0.1332340  0.0000000
 R(2)=  3.7527955  3.7527955  0.0000000  G(2)=  0.1332340  0.1332340  0.0000000
 R(3)=  0.0000000  0.0000000  7.5055909  G(3)=  0.0000000  0.0000000  0.1332340
 Unit cell volume ucvol=  2.1140958E+02 bohr^3
 Angles (23,13,12)=  9.00000000E+01  9.00000000E+01  9.00000000E+01 degrees

 getcut: wavevector=  0.0000  0.0000  0.0000  ngfft=  12  12  18
         ecut(hartree)=      6.000   => boxcut(ratio)=   2.05055

--- Pseudopotential description ------------------------------------------------
- pspini: atom type   1  psp file is 13al.981214.fhi
- pspatm: opening atomic psp file    13al.981214.fhi
- Aluminum, fhi98PP : Hamann-type, LDA CA PerdewWang, l=2 local
- 13.00000   3.00000    981214                znucl, zion, pspdat
    6    7    2    2       493   0.00000      pspcod,pspxc,lmax,lloc,mmax,r2well
  No XC core correction.
  1.024700          amesh (Hamman grid)
 pspatm: epsatm=    1.36305739
         --- l  ekb(1:nproj) -->
             0    1.768744
             1    0.900554
 pspatm: atomic psp has been read  and splines computed

   1.63566886E+01                                ecore*ucvol(ha*bohr**3)
--------------------------------------------------------------------------------

P newkpt: treating      4 bands with npw=     141 for ikpt=   1 by node    0
P newkpt: treating      4 bands with npw=     150 for ikpt=   2 by node    0
P newkpt: treating      4 bands with npw=     144 for ikpt=   3 by node    0
P newkpt: treating      4 bands with npw=     152 for ikpt=   4 by node    0
P newkpt: treating      4 bands with npw=     152 for ikpt=   5 by node    0
P newkpt: treating      4 bands with npw=     152 for ikpt=   6 by node    0
P newkpt: treating      4 bands with npw=     146 for ikpt=   7 by node    0
P newkpt: treating      4 bands with npw=     148 for ikpt=   8 by node    0
P newkpt: treating      4 bands with npw=     150 for ikpt=   9 by node    0
P newkpt: treating      4 bands with npw=     148 for ikpt=  10 by node    0
P newkpt: treating      4 bands with npw=     152 for ikpt=  11 by node    0
P newkpt: treating      4 bands with npw=     150 for ikpt=  12 by node    0

_setup2: Arith. and geom. avg. npw (full set) are     148.938     148.899

================================================================================

     iter   Etot(hartree)      deltaE(h)  residm     vres2
 ETOT  1  -4.1958117089209    -4.196E+00 6.635E-03 2.961E-01
 ETOT  2  -4.1962857172603    -4.740E-04 2.173E-04 7.876E-03
 ETOT  3  -4.1962972076946    -1.149E-05 1.003E-05 3.889E-05
 ETOT  4  -4.1962972612573    -5.356E-08 1.214E-05 1.457E-07
 ETOT  5  -4.1962972614324    -1.750E-10 4.748E-07 2.557E-10

 At SCF step    5, etot is converged : 
  for the second time, diff in etot=  1.750E-10 < toldfe=  1.000E-06

 Cartesian components of stress tensor (hartree/bohr^3)
  sigma(1 1)=  2.59344464E-05  sigma(3 2)=  0.00000000E+00
  sigma(2 2)=  2.59344464E-05  sigma(3 1)=  0.00000000E+00
  sigma(3 3)=  2.62540760E-05  sigma(2 1)=  0.00000000E+00

================================================================================

 ----iterations are completed or convergence reached----

 Mean square residual over all n,k,spin=   9.9396E-09; max=  4.7480E-07
   0.0000  0.1250  0.1250    1  1.07303E-12 kpt; spin; max resid(k); each band:
  1.03E-13 8.09E-13 1.07E-12 9.40E-13
   0.0000  0.3750  0.1250    1  2.26013E-09 kpt; spin; max resid(k); each band:
  7.04E-13 8.38E-13 7.48E-13 2.26E-09
   0.1250  0.2500  0.1250    1  2.14102E-12 kpt; spin; max resid(k); each band:
  6.34E-14 1.13E-12 1.84E-12 2.14E-12
   0.1250  0.5000  0.1250    1  7.95397E-13 kpt; spin; max resid(k); each band:
  7.95E-13 7.95E-13 7.41E-13 7.41E-13
   0.2500  0.3750  0.1250    1  2.11305E-12 kpt; spin; max resid(k); each band:
  9.67E-14 1.08E-12 1.86E-12 2.11E-12
   0.3750  0.5000  0.1250    1  9.34954E-13 kpt; spin; max resid(k); each band:
  4.76E-13 4.76E-13 9.33E-13 9.35E-13
   0.0000  0.1250  0.3750    1  4.74799E-07 kpt; spin; max resid(k); each band:
  5.51E-13 6.35E-13 1.17E-12 4.75E-07
   0.0000  0.3750  0.3750    1  9.94138E-13 kpt; spin; max resid(k); each band:
  9.52E-13 9.89E-13 9.94E-13 9.54E-13
   0.1250  0.2500  0.3750    1  8.17844E-13 kpt; spin; max resid(k); each band:
  7.06E-13 8.00E-13 7.41E-13 8.18E-13
   0.1250  0.5000  0.3750    1  9.96535E-13 kpt; spin; max resid(k); each band:
  9.87E-13 9.87E-13 9.97E-13 9.97E-13
   0.2500  0.3750  0.3750    1  8.41361E-13 kpt; spin; max resid(k); each band:
  7.97E-13 8.41E-13 7.41E-13 7.40E-13
   0.3750  0.5000  0.3750    1  8.25036E-13 kpt; spin; max resid(k); each band:
  6.57E-13 6.57E-13 8.25E-13 8.25E-13
 reduced coordinates (array xred) for    2 atoms
       0.000000000000      0.000000000000      0.000000000000
       0.500000000000      0.500000000000      0.500000000000
 rms dE/dt=  0.0000E+00; max dE/dt=  0.0000E+00; dE/dt below (all hartree)
    1       0.000000000000      0.000000000000      0.000000000000
    2       0.000000000000      0.000000000000      0.000000000000

 cartesian coordinates (angstrom) at end:
    1      0.00000000000000     0.00000000000000     0.00000000000000
    2      1.98589382064025     0.00000000000000     1.98589382064025

 cartesian forces (hartree/bohr) at end:
    1     -0.00000000000000    -0.00000000000000    -0.00000000000000
    2     -0.00000000000000    -0.00000000000000    -0.00000000000000
 frms,max,avg= 0.0000000E+00 0.0000000E+00   0.000E+00  0.000E+00  0.000E+00 h/b

 cartesian forces (eV/Angstrom) at end:
    1     -0.00000000000000    -0.00000000000000    -0.00000000000000
    2     -0.00000000000000    -0.00000000000000    -0.00000000000000
 frms,max,avg= 0.0000000E+00 0.0000000E+00   0.000E+00  0.000E+00  0.000E+00 e/A
 length scales=  7.505590900000  7.505590900000  7.505590900000 bohr
              =  3.971787641281  3.971787641281  3.971787641281 angstroms
 prteigrs : about to open file tbase4_xo_EIG
 Fermi (or HOMO) energy (hartree) =   0.29198   Average Vxc (hartree)=  -0.34963
 Eigenvalues (hartree) for nkpt=  12  k points:
 kpt#   1, nband=  4, wtk=  0.06250, kpt=  0.0000  0.1250  0.1250 (reduced coord)
  -0.11517   0.13416   0.30478   0.37416
      occupation numbers for kpt#   1
   2.00000   2.00000   0.37399   0.00401
 kpt#   2, nband=  4, wtk=  0.06250, kpt=  0.0000  0.3750  0.1250 (reduced coord)
  -0.03009   0.13548   0.21579   0.37478
      occupation numbers for kpt#   2
   2.00000   2.00000   2.04789   0.00390
 kpt#   3, nband=  4, wtk=  0.12500, kpt=  0.1250  0.2500  0.1250 (reduced coord)
  -0.07242   0.17439   0.25512   0.34593
      occupation numbers for kpt#   3
   2.00000   2.00072   2.07737   0.00106
 kpt#   4, nband=  4, wtk=  0.06250, kpt=  0.1250  0.5000  0.1250 (reduced coord)
   0.05351   0.05351   0.29540   0.29540
      occupation numbers for kpt#   4
   2.00000   2.00000   0.70044   0.70044
 kpt#   5, nband=  4, wtk=  0.12500, kpt=  0.2500  0.3750  0.1250 (reduced coord)
   0.01185   0.17439   0.25512   0.34593
      occupation numbers for kpt#   5
   2.00000   2.00072   2.07737   0.00106
 kpt#   6, nband=  4, wtk=  0.06250, kpt=  0.3750  0.5000  0.1250 (reduced coord)
   0.13416   0.13416   0.30478   0.30478
      occupation numbers for kpt#   6
   2.00000   2.00000   0.37400   0.37400
 kpt#   7, nband=  4, wtk=  0.06250, kpt=  0.0000  0.1250  0.3750 (reduced coord)
  -0.07242   0.01185   0.41184   0.49055
      occupation numbers for kpt#   7
   2.00000   2.00000   0.00015   0.00000
 kpt#   8, nband=  4, wtk=  0.06250, kpt=  0.0000  0.3750  0.3750 (reduced coord)
   0.01192   0.09468   0.17738   0.25786
      occupation numbers for kpt#   8
   2.00000   2.00000   2.00106   2.03986
 kpt#   9, nband=  4, wtk=  0.12500, kpt=  0.1250  0.2500  0.3750 (reduced coord)
  -0.03009   0.05351   0.29540   0.37478
      occupation numbers for kpt#   9
   2.00000   2.00000   0.70044   0.00390
 kpt#  10, nband=  4, wtk=  0.06250, kpt=  0.1250  0.5000  0.3750 (reduced coord)
   0.09468   0.09468   0.17738   0.17738
      occupation numbers for kpt#  10
   2.00000   2.00000   2.00106   2.00106
 kpt#  11, nband=  4, wtk=  0.12500, kpt=  0.2500  0.3750  0.3750 (reduced coord)
   0.05351   0.13548   0.21579   0.29540
      occupation numbers for kpt#  11
   2.00000   2.00000   2.04789   0.70044
 kpt#  12, nband=  4, wtk=  0.06250, kpt=  0.3750  0.5000  0.3750 (reduced coord)
   0.17439   0.17439   0.25512   0.25512
      occupation numbers for kpt#  12
   2.00072   2.00072   2.07737   2.07737
 Total charge density [el/Bohr^3]
,     Maximum=    3.4039E-02  at reduced coord.    0.0000    0.6667    0.8889
,Next maximum=    3.4039E-02  at reduced coord.    0.0000    0.3333    0.8889
,     Minimum=    2.5428E-03  at reduced coord.    0.0000    0.0000    0.0000
,Next minimum=    2.5428E-03  at reduced coord.    0.5000    0.5000    0.5000
,  Integrated=    6.0000E+00

--------------------------------------------------------------------------------
 Components of total free energy (in Hartree) :

    Kinetic energy  =  1.75222083203222E+00
    Hartree energy  =  8.47074226245784E-03
    XC energy       = -1.62779615994683E+00
    Ewald energy    = -5.49773618317307E+00
    PspCore energy  =  7.73696647514498E-02
    Loc. psp. energy=  1.91199880230714E-01
    NL   psp  energy=  9.01758907222688E-01
    >>>>> Internal E= -4.19451231662037E+00

    -kT*entropy     = -1.78494481197807E-03
    >>>>>>>>> Etotal= -4.19629726143235E+00

 Other information on the energy :
    Total energy(eV)= -1.14187055571502E+02 ; Band energy (Ha)=   7.4115052285E-01
--------------------------------------------------------------------------------

 Cartesian components of stress tensor (hartree/bohr^3)
  sigma(1 1)=  2.59344464E-05  sigma(3 2)=  0.00000000E+00
  sigma(2 2)=  2.59344464E-05  sigma(3 1)=  0.00000000E+00
  sigma(3 3)=  2.62540760E-05  sigma(2 1)=  0.00000000E+00

-Cartesian components of stress tensor (GPa)         [Pressure= -7.6615E-01 GPa]
- sigma(1 1)=  7.63017629E-01  sigma(3 2)=  0.00000000E+00
- sigma(2 2)=  7.63017629E-01  sigma(3 1)=  0.00000000E+00
- sigma(3 3)=  7.72421452E-01  sigma(2 1)=  0.00000000E+00

== END DATASET(S) ==============================================================
================================================================================
  
 -outvars: echo values of variables after computation  --------
            acell      7.5055909000E+00  7.5055909000E+00  7.5055909000E+00 Bohr
              amu      2.69815390E+01
             ecut      6.00000000E+00 Hartree
           etotal     -4.1962972614E+00
            fcart     -0.0000000000E+00 -0.0000000000E+00 -0.0000000000E+00
                      -0.0000000000E+00 -0.0000000000E+00 -0.0000000000E+00
              kpt      0.00000000E+00  1.25000000E-01  1.25000000E-01
                       0.00000000E+00  3.75000000E-01  1.25000000E-01
                       1.25000000E-01  2.50000000E-01  1.25000000E-01
                       1.25000000E-01  5.00000000E-01  1.25000000E-01
                       2.50000000E-01  3.75000000E-01  1.25000000E-01
                       3.75000000E-01  5.00000000E-01  1.25000000E-01
                       0.00000000E+00  1.25000000E-01  3.75000000E-01
                       0.00000000E+00  3.75000000E-01  3.75000000E-01
                       1.25000000E-01  2.50000000E-01  3.75000000E-01
                       1.25000000E-01  5.00000000E-01  3.75000000E-01
                       2.50000000E-01  3.75000000E-01  3.75000000E-01
                       3.75000000E-01  5.00000000E-01  3.75000000E-01
         kptrlatt        4   -4    0      4    4    0      0    0    4
          kptrlen      3.00223636E+01
P           mkmem          12
            natom           2
            nband           4
            ngfft          12      12      18
             nkpt          12
            nstep          10
             nsym          32
           ntypat           1
              occ      2.000000  2.000001  0.373993  0.004015
                       2.000000  2.000002  2.047894  0.003904
                       2.000000  2.000717  2.077372  0.001061
                       2.000000  2.000000  0.700442  0.700442
                       2.000000  2.000717  2.077372  0.001061
                       2.000001  2.000001  0.373997  0.373997
                       2.000000  2.000000  0.000149  0.000000
                       2.000000  2.000000  2.001056  2.039858
                       2.000000  2.000000  0.700440  0.003904
                       2.000000  2.000000  2.001056  2.001056
                       2.000000  2.000002  2.047894  0.700440
                       2.000717  2.000717  2.077372  2.077372
           occopt           4
            rprim      5.0000000000E-01 -5.0000000000E-01  0.0000000000E+00
                       5.0000000000E-01  5.0000000000E-01  0.0000000000E+00
                       0.0000000000E+00  0.0000000000E+00  1.0000000000E+00
           shiftk     -5.00000000E-01  5.00000000E-01  5.00000000E-01
           strten      2.5934446434E-05  2.5934446434E-05  2.6254075960E-05
                       0.0000000000E+00  0.0000000000E+00  0.0000000000E+00
           symrel      1  0  0   0  1  0   0  0  1       1  0  0   0  1  0   0  0  1
                      -1  0  0   0 -1  0   0  0 -1      -1  0  0   0 -1  0   0  0 -1
                      -1  0  0   0  1  0   0  0 -1      -1  0  0   0  1  0   0  0 -1
                       1  0  0   0 -1  0   0  0  1       1  0  0   0 -1  0   0  0  1
                      -1  0  0   0 -1  0   0  0  1      -1  0  0   0 -1  0   0  0  1
                       1  0  0   0  1  0   0  0 -1       1  0  0   0  1  0   0  0 -1
                       1  0  0   0 -1  0   0  0 -1       1  0  0   0 -1  0   0  0 -1
                      -1  0  0   0  1  0   0  0  1      -1  0  0   0  1  0   0  0  1
                       0  1  0   1  0  0   0  0  1       0  1  0   1  0  0   0  0  1
                       0 -1  0  -1  0  0   0  0 -1       0 -1  0  -1  0  0   0  0 -1
                       0 -1  0   1  0  0   0  0 -1       0 -1  0   1  0  0   0  0 -1
                       0  1  0  -1  0  0   0  0  1       0  1  0  -1  0  0   0  0  1
                       0 -1  0  -1  0  0   0  0  1       0 -1  0  -1  0  0   0  0  1
                       0  1  0   1  0  0   0  0 -1       0  1  0   1  0  0   0  0 -1
                       0  1  0  -1  0  0   0  0 -1       0  1  0  -1  0  0   0  0 -1
                       0 -1  0   1  0  0   0  0  1       0 -1  0   1  0  0   0  0  1
            tnons      0.0000000  0.0000000  0.0000000     0.5000000  0.5000000  0.5000000
                       0.0000000  0.0000000  0.0000000     0.5000000  0.5000000  0.5000000
                       0.0000000  0.0000000  0.0000000     0.5000000  0.5000000  0.5000000
                       0.0000000  0.0000000  0.0000000     0.5000000  0.5000000  0.5000000
                       0.0000000  0.0000000  0.0000000     0.5000000  0.5000000  0.5000000
                       0.0000000  0.0000000  0.0000000     0.5000000  0.5000000  0.5000000
                       0.0000000  0.0000000  0.0000000     0.5000000  0.5000000  0.5000000
                       0.0000000  0.0000000  0.0000000     0.5000000  0.5000000  0.5000000
                       0.0000000  0.0000000  0.0000000     0.5000000  0.5000000  0.5000000
                       0.0000000  0.0000000  0.0000000     0.5000000  0.5000000  0.5000000
                       0.0000000  0.0000000  0.0000000     0.5000000  0.5000000  0.5000000
                       0.0000000  0.0000000  0.0000000     0.5000000  0.5000000  0.5000000
                       0.0000000  0.0000000  0.0000000     0.5000000  0.5000000  0.5000000
                       0.0000000  0.0000000  0.0000000     0.5000000  0.5000000  0.5000000
                       0.0000000  0.0000000  0.0000000     0.5000000  0.5000000  0.5000000
                       0.0000000  0.0000000  0.0000000     0.5000000  0.5000000  0.5000000
           toldfe      1.00000000E-06 Hartree
            typat      1  1
              wtk        0.06250    0.06250    0.12500    0.06250    0.12500    0.06250
                         0.06250    0.06250    0.12500    0.06250    0.12500    0.06250
           xangst      0.0000000000E+00  0.0000000000E+00  0.0000000000E+00
                       1.9858938206E+00  0.0000000000E+00  1.9858938206E+00
            xcart      0.0000000000E+00  0.0000000000E+00  0.0000000000E+00
                       3.7527954500E+00  0.0000000000E+00  3.7527954500E+00
             xred      0.0000000000E+00  0.0000000000E+00  0.0000000000E+00
                       5.0000000000E-01  5.0000000000E-01  5.0000000000E-01
            znucl       13.00000

================================================================================


- Timing analysis has been suppressed with timopt=0



================================================================================

 Suggested references for the acknowledgment of ABINIT usage.

 The users of ABINIT have little formal obligations with respect to the ABINIT group
 (those specified in the GNU General Public License, http://www.gnu.org/copyleft/gpl.txt).
 However, it is common practice in the scientific literature,
 to acknowledge the efforts of people that have made the research possible.
 In this spirit, please find below suggested citations of work written by ABINIT developers,
 corresponding to implementations inside of ABINIT that you have used in the present run.
 Note also that it will be of great value to readers of publications presenting these results,
 to read papers enabling them to understand the theoretical formalism and details
 of the ABINIT implementation.
 For information on why they are suggested, see also http://www.abinit.org/about/?text=acknowledgments.

 [1] Ab initio pseudopotentials for electronic structure calculations of poly-atomic systems, 
 using density-functional theory.
 M. Fuchs, M. Scheffler, Comput. Phys. Commun. 119, 67 (1999).
 Comment : Some pseudopotential generated using the FHI code were used.

 [2] ABINIT : First-principles approach of materials and nanosystem properties.
 X. Gonze, B. Amadon, P.-M. Anglade, J.-M. Beuken, F. Bottin, P. Boulanger, F. Bruneval,
 D. Caliste, R. Caracas, M. Cote, T. Deutsch, L. Genovese, Ph. Ghosez, M. Giantomassi
 S. Goedecker, D.R. Hamann, P. Hermet, F. Jollet, G. Jomard, S. Leroux, M. Mancini, S. Mazevet,
 M.J.T. Oliveira, G. Onida, Y. Pouillon, T. Rangel, G.-M. Rignanese, D. Sangalli, R. Shaltaf,
 M. Torrent, M.J. Verstraete, G. Zerah, J.W. Zwanziger
 Computer Phys. Comm. 180, 2582-2615 (2009).
 Comment : the third generic paper describing the ABINIT project.
 Note that a version of this paper, that is not formatted for Computer Phys. Comm. 
 is available at http://www.abinit.org/about/ABINIT_CPC_v10.pdf .
 The licence allows the authors to put it on the Web.

 [3] A brief introduction to the ABINIT software package.
 X. Gonze, G.-M. Rignanese, M. Verstraete, J.-M. Beuken, Y. Pouillon, R. Caracas, F. Jollet,
 M. Torrent, G. Zerah, M. Mikami, Ph. Ghosez, M. Veithen, J.-Y. Raty, V. Olevano, F. Bruneval,
 L. Reining, R. Godby, G. Onida, D.R. Hamann, and D.C. Allan.
 Z. Kristallogr. 220, 558-562 (2005).
 Comment : the second generic paper describing the ABINIT project. Note that this paper
 should be cited especially if you are using the GW part of ABINIT, as several authors
 of this part are not in the list of authors of the first or third paper.
 The .pdf of the latter paper is available at http://www.abinit.org/about/zfk_0505-06_558-562.pdf.
 Note that it should not redistributed (Copyright by Oldenburg Wissenshaftverlag,
 the licence allows the authors to put it on the Web).


 And optionally :

 [4] First-principles computation of material properties : the ABINIT software project. 
 X. Gonze, J.-M. Beuken, R. Caracas, F. Detraux, M. Fuchs, G.-M. Rignanese, L. Sindic,
 M. Verstraete, G. Zerah, F. Jollet, M. Torrent, A. Roy, M. Mikami, Ph. Ghosez, J.-Y. Raty, D.C. Allan.
 Computational Materials Science 25, 478-492 (2002). http://dx.doi.org/10.1016/S0927-0256(02)00325-7
 Comment : the original paper describing the ABINIT project.

 [5] Fast radix 2, 3, 4 and 5 kernels for Fast Fourier Transformations
 on computers with overlapping multiply-add instructions.
 S. Goedecker, SIAM J. on Scientific Computing 18, 1605 (1997).
-
- Proc.   0 individual time (sec): cpu=          1.3  wall=          1.4

================================================================================

 Calculation completed.
.Delivered   10 WARNINGs and   3 COMMENTs to log file.
+Overall time at end (sec) : cpu=          1.3  wall=          1.4
