  ABINIT 
  
  Give name for formatted input file: 
tbase4_3.in
  Give name for formatted output file:
tbase4_3.out
  Give root name for generic input files:
tbase4_xi
  Give root name for generic output files:
tbase4_xo
  Give root name for generic temporary files:
tbase4_x

 herald :  WARNING -
  The starting date is more than 3 years after the initial release
  of this version of ABINIT, namely Aug 2013.
  This version of ABINIT is not supported anymore.
  Action : please, switch to a more recent version of ABINIT.

.Version 7.4.3 of ABINIT 
.(MPI version, prepared for a i686_cygwin_gnu4.7 computer) 

.Copyright (C) 1998-2013 ABINIT group . 
 ABINIT comes with ABSOLUTELY NO WARRANTY.
 It is free software, and you are welcome to redistribute it
 under certain conditions (GNU General Public License,
 see ~abinit/COPYING or http://www.gnu.org/copyleft/gpl.txt).

 ABINIT is a project of the Universite Catholique de Louvain,
 Corning Inc. and other collaborators, see ~abinit/doc/developers/contributors.txt .
 Please read ~abinit/doc/users/acknowledgments.html for suggested
 acknowledgments of the ABINIT effort.
 For more information, see http://www.abinit.org .

.Starting date : Mon  4 Jun 2018.
- ( at 12h56 )
  

 herald :  WARNING -
  The starting date is more than 3 years after the initial release
  of this version of ABINIT, namely Aug 2013.
  This version of ABINIT is not supported anymore.
  Action : please, switch to a more recent version of ABINIT.

 herald :  WARNING -
  The starting date is more than 3 years after the initial release
  of this version of ABINIT, namely Aug 2013.
  This version of ABINIT is not supported anymore.
  Action : please, switch to a more recent version of ABINIT.

 ++++++++++++++++++++++++++++++++++++++++++++++++++++++++++++++++++++++++++++++

 === Build Information === 
  Version       : 7.4.3
  Build target  : i686_cygwin_gnu4.7
  Build date    : 20131019

 === Compiler Suite === 
  C compiler       : gnu
  CFLAGS           : -mfpmath=sse -msse2 -O2 -Wstrict-aliasing=2 -static
  C++ compiler     : gnu4.7
  CXXFLAGS         : -mfpmath=sse -msse2 -O2 -Wstrict-aliasing=2 -static
  Fortran compiler : gnu4.7
  FCFLAGS          : -mfpmath=sse -msse2 -O2 -ffree-line-length-none -Wstrict-aliasing=2 -static
  FC_LDFLAGS       : 

 === Optimizations === 
  Debug level        : no
  Optimization level : standard
  Architecture       : _

 === MPI === 
  Parallel build : yes
  Parallel I/O   : no
  Time tracing   : no
  GPU support    : no

 === Connectors / Fallbacks === 
  Connectors on : yes
  Fallbacks on  : yes
  DFT flavor    : libxc+atompaw+bigdft+wannier90
  FFT flavor    : none
  LINALG flavor : netlib
  MATH flavor   : none
  TIMER flavor  : abinit
  TRIO flavor   : netcdf+etsf_io

 === Experimental features === 
  Bindings            : no
  Exports             : no
  GW double-precision : yes

 === Bazaar branch information === 
  Branch ID : xavier.gonze@uclouvain.be-20131019063522-8wupmx7xtg5stywd
  Revision  : 490
  Committed : 0

 ++++++++++++++++++++++++++++++++++++++++++++++++++++++++++++++++++++++++++++++


 ++++++++++++++++++++++++++++++++++++++++++++++++++++++++++++++++++++++++++++++
 Default optimizations:
   --- None ---


 ++++++++++++++++++++++++++++++++++++++++++++++++++++++++++++++++++++++++++++++


 ++++++++++++++++++++++++++++++++++++++++++++++++++++++++++++++++++++++++++++++
 CPP options activated during the build:

                    CC_GNU                   CXX_GNU                    FC_GNU

           HAVE_BZR_BRANCH          HAVE_DFT_ATOMPAW           HAVE_DFT_BIGDFT

            HAVE_DFT_LIBXC        HAVE_DFT_WANNIER90 HAVE_FC_ALLOCATABLE_DT...

      HAVE_FC_COMMAND_LINE        HAVE_FC_CONTIGUOUS           HAVE_FC_CPUTIME

              HAVE_FC_EXIT             HAVE_FC_FLUSH             HAVE_FC_GAMMA

            HAVE_FC_GETENV          HAVE_FC_INT_QUAD             HAVE_FC_IOMSG

     HAVE_FC_ISO_C_BINDING        HAVE_FC_LONG_LINES              HAVE_FC_NULL

         HAVE_FC_STREAM_IO          HAVE_FORTRAN2003               HAVE_LINALG

        HAVE_LINALG_SERIAL                  HAVE_MPI                 HAVE_MPI1

 HAVE_MPI_TYPE_CREATE_S...           HAVE_OS_WINDOWS                HAVE_TIMER

         HAVE_TIMER_ABINIT            HAVE_TIMER_MPI         HAVE_TIMER_SERIAL

         HAVE_TRIO_ETSF_IO          HAVE_TRIO_NETCDF
 ++++++++++++++++++++++++++++++++++++++++++++++++++++++++++++++++++++++++++++++

- input  file    -> tbase4_3.in
- output file    -> tbase4_3.out
- root for input  files -> tbase4_xi
- root for output files -> tbase4_xo

-instrng :    87 lines of input have been read from file tbase4_3.in


 iofn2 : Please give name of formatted atomic psp file
 iofn2 : for atom type   1 , psp file is 13al.981214.fhi
  read the values zionpsp=  3.0 , pspcod=   6 , lmax=   2

 inpspheads : deduce mpsang  =   3, n1xccc  =   0.

 invars1m : enter jdtset=    11
 invars1 : treat image number     1

 symlatt : the Bravais lattice is cF (face-centered cubic)
  xred   is defined in input file
 ingeo : takes atomic coordinates from input array xred

 symlatt : the Bravais lattice is cF (face-centered cubic)

 symlatt : the Bravais lattice is cF (face-centered cubic)
 symspgr : the symmetry operation no.   1 is the identity
 symspgr : the symmetry operation no.   2 is an inversion
 symaxes : the symmetry operation no.   3 is a 2-axis
 symplanes : the symmetry operation no.   4 is a mirror plane
 symaxes : the symmetry operation no.   5 is a 2-axis
 symplanes : the symmetry operation no.   6 is a mirror plane
 symaxes : the symmetry operation no.   7 is a 2-axis
 symplanes : the symmetry operation no.   8 is a mirror plane
 symplanes : the symmetry operation no.   9 is a mirror plane
 symaxes : the symmetry operation no.  10 is a 2-axis
 symspgr : the symmetry operation no.  11 is a -4 axis
 symaxes : the symmetry operation no.  12 is a 4-axis
 symplanes : the symmetry operation no.  13 is a mirror plane
 symaxes : the symmetry operation no.  14 is a 2-axis
 symspgr : the symmetry operation no.  15 is a -4 axis
 symaxes : the symmetry operation no.  16 is a 4-axis
 symaxes : the symmetry operation no.  17 is a 3-axis
 symspgr : the symmetry operation no.  18 is a -3 axis
 symaxes : the symmetry operation no.  19 is a 3-axis
 symspgr : the symmetry operation no.  20 is a -3 axis
 symaxes : the symmetry operation no.  21 is a 3-axis
 symspgr : the symmetry operation no.  22 is a -3 axis
 symaxes : the symmetry operation no.  23 is a 3-axis
 symspgr : the symmetry operation no.  24 is a -3 axis
 symplanes : the symmetry operation no.  25 is a mirror plane
 symaxes : the symmetry operation no.  26 is a 2-axis
 symspgr : the symmetry operation no.  27 is a -4 axis
 symaxes : the symmetry operation no.  28 is a 4-axis
 symspgr : the symmetry operation no.  29 is a -4 axis
 symaxes : the symmetry operation no.  30 is a 4-axis
 symplanes : the symmetry operation no.  31 is a mirror plane
 symaxes : the symmetry operation no.  32 is a 2-axis
 symaxes : the symmetry operation no.  33 is a 3-axis
 symspgr : the symmetry operation no.  34 is a -3 axis
 symaxes : the symmetry operation no.  35 is a 3-axis
 symspgr : the symmetry operation no.  36 is a -3 axis
 symaxes : the symmetry operation no.  37 is a 3-axis
 symspgr : the symmetry operation no.  38 is a -3 axis
 symaxes : the symmetry operation no.  39 is a 3-axis
 symspgr : the symmetry operation no.  40 is a -3 axis
 symplanes : the symmetry operation no.  41 is a mirror plane
 symaxes : the symmetry operation no.  42 is a 2-axis
 symplanes : the symmetry operation no.  43 is a mirror plane
 symaxes : the symmetry operation no.  44 is a 2-axis
 symspgr : the symmetry operation no.  45 is a -4 axis
 symaxes : the symmetry operation no.  46 is a 4-axis
 symspgr : the symmetry operation no.  47 is a -4 axis
 symaxes : the symmetry operation no.  48 is a 4-axis
 symspgr : the symmetry operation no.  49 is a pure translation
 symspgr : the symmetry operation no.  50 is an inversion
 symaxes : the symmetry operation no.  51 is a 2_1-axis
 symplanes : the symmetry operation no.  52 is a primary n plane
 symaxes : the symmetry operation no.  53 is a 2_1-axis
 symplanes : the symmetry operation no.  54 is a primary n plane
 symaxes : the symmetry operation no.  55 is a 2-axis
 symplanes : the symmetry operation no.  56 is a primary n plane
 symplanes : the symmetry operation no.  57 is a tertiary m plane
 symaxes : the symmetry operation no.  58 is a 2_1-axis
 symspgr : the symmetry operation no.  59 is a -4 axis
 symaxes : the symmetry operation no.  60 is a 4_2-axis
 symplanes : the symmetry operation no.  61 is a tertiary m plane
 symaxes : the symmetry operation no.  62 is a 2_1-axis
 symspgr : the symmetry operation no.  63 is a -4 axis
 symaxes : the symmetry operation no.  64 is a 4_2-axis
 symaxes : the symmetry operation no.  65 is a 3, 3_1 or 3_2 axis
 symspgr : the symmetry operation no.  66 is a -3 axis
 symaxes : the symmetry operation no.  67 is a 3-axis
 symspgr : the symmetry operation no.  68 is a -3 axis
 symaxes : the symmetry operation no.  69 is a 3, 3_1 or 3_2 axis
 symspgr : the symmetry operation no.  70 is a -3 axis
 symaxes : the symmetry operation no.  71 is a 3-axis
 symspgr : the symmetry operation no.  72 is a -3 axis
 symplanes : the symmetry operation no.  73 is a tertiary m plane
 symaxes : the symmetry operation no.  74 is a 2-axis
 symspgr : the symmetry operation no.  75 is a -4 axis
 symaxes : the symmetry operation no.  76 is a 4-axis
 symspgr : the symmetry operation no.  77 is a -4 axis
 symaxes : the symmetry operation no.  78 is a 4-axis
 symplanes : the symmetry operation no.  79 is a mirror plane
 symaxes : the symmetry operation no.  80 is a 2-axis
 symaxes : the symmetry operation no.  81 is a 3, 3_1 or 3_2 axis
 symspgr : the symmetry operation no.  82 is a -3 axis
 symaxes : the symmetry operation no.  83 is a 3, 3_1 or 3_2 axis
 symspgr : the symmetry operation no.  84 is a -3 axis
 symaxes : the symmetry operation no.  85 is a 3-axis
 symspgr : the symmetry operation no.  86 is a -3 axis
 symaxes : the symmetry operation no.  87 is a 3-axis
 symspgr : the symmetry operation no.  88 is a -3 axis
 symplanes : the symmetry operation no.  89 is a tertiary m plane
 symaxes : the symmetry operation no.  90 is a 2_1-axis
 symplanes : the symmetry operation no.  91 is a tertiary m plane
 symaxes : the symmetry operation no.  92 is a 2_1-axis
 symspgr : the symmetry operation no.  93 is a -4 axis
 symaxes : the symmetry operation no.  94 is a 4_2-axis
 symspgr : the symmetry operation no.  95 is a -4 axis
 symaxes : the symmetry operation no.  96 is a 4_2-axis
 symspgr : the symmetry operation no.  97 is a pure translation
 symspgr : the symmetry operation no.  98 is an inversion
 symaxes : the symmetry operation no.  99 is a 2-axis
 symplanes : the symmetry operation no. 100 is a primary n plane
 symaxes : the symmetry operation no. 101 is a 2_1-axis
 symplanes : the symmetry operation no. 102 is a primary n plane
 symaxes : the symmetry operation no. 103 is a 2_1-axis
 symplanes : the symmetry operation no. 104 is a primary n plane
 symplanes : the symmetry operation no. 105 is a tertiary m plane
 symaxes : the symmetry operation no. 106 is a 2_1-axis
 symspgr : the symmetry operation no. 107 is a -4 axis
 symaxes : the symmetry operation no. 108 is a 4_2-axis
 symplanes : the symmetry operation no. 109 is a tertiary m plane
 symaxes : the symmetry operation no. 110 is a 2_1-axis
 symspgr : the symmetry operation no. 111 is a -4 axis
 symaxes : the symmetry operation no. 112 is a 4_2-axis
 symaxes : the symmetry operation no. 113 is a 3, 3_1 or 3_2 axis
 symspgr : the symmetry operation no. 114 is a -3 axis
 symaxes : the symmetry operation no. 115 is a 3-axis
 symspgr : the symmetry operation no. 116 is a -3 axis
 symaxes : the symmetry operation no. 117 is a 3-axis
 symspgr : the symmetry operation no. 118 is a -3 axis
 symaxes : the symmetry operation no. 119 is a 3, 3_1 or 3_2 axis
 symspgr : the symmetry operation no. 120 is a -3 axis
 symplanes : the symmetry operation no. 121 is a tertiary m plane
 symaxes : the symmetry operation no. 122 is a 2_1-axis
 symspgr : the symmetry operation no. 123 is a -4 axis
 symaxes : the symmetry operation no. 124 is a 4_2-axis
 symspgr : the symmetry operation no. 125 is a -4 axis
 symaxes : the symmetry operation no. 126 is a 4_2-axis
 symplanes : the symmetry operation no. 127 is a tertiary m plane
 symaxes : the symmetry operation no. 128 is a 2_1-axis
 symaxes : the symmetry operation no. 129 is a 3, 3_1 or 3_2 axis
 symspgr : the symmetry operation no. 130 is a -3 axis
 symaxes : the symmetry operation no. 131 is a 3-axis
 symspgr : the symmetry operation no. 132 is a -3 axis
 symaxes : the symmetry operation no. 133 is a 3, 3_1 or 3_2 axis
 symspgr : the symmetry operation no. 134 is a -3 axis
 symaxes : the symmetry operation no. 135 is a 3-axis
 symspgr : the symmetry operation no. 136 is a -3 axis
 symplanes : the symmetry operation no. 137 is a tertiary m plane
 symaxes : the symmetry operation no. 138 is a 2-axis
 symplanes : the symmetry operation no. 139 is a mirror plane
 symaxes : the symmetry operation no. 140 is a 2-axis
 symspgr : the symmetry operation no. 141 is a -4 axis
 symaxes : the symmetry operation no. 142 is a 4-axis
 symspgr : the symmetry operation no. 143 is a -4 axis
 symaxes : the symmetry operation no. 144 is a 4-axis
 symspgr : the symmetry operation no. 145 is a pure translation
 symspgr : the symmetry operation no. 146 is an inversion
 symaxes : the symmetry operation no. 147 is a 2_1-axis
 symplanes : the symmetry operation no. 148 is a primary n plane
 symaxes : the symmetry operation no. 149 is a 2-axis
 symplanes : the symmetry operation no. 150 is a primary n plane
 symaxes : the symmetry operation no. 151 is a 2_1-axis
 symplanes : the symmetry operation no. 152 is a primary n plane
 symplanes : the symmetry operation no. 153 is a tertiary m plane
 symaxes : the symmetry operation no. 154 is a 2-axis
 symspgr : the symmetry operation no. 155 is a -4 axis
 symaxes : the symmetry operation no. 156 is a 4-axis
 symplanes : the symmetry operation no. 157 is a mirror plane
 symaxes : the symmetry operation no. 158 is a 2-axis
 symspgr : the symmetry operation no. 159 is a -4 axis
 symaxes : the symmetry operation no. 160 is a 4-axis
 symaxes : the symmetry operation no. 161 is a 3, 3_1 or 3_2 axis
 symspgr : the symmetry operation no. 162 is a -3 axis
 symaxes : the symmetry operation no. 163 is a 3, 3_1 or 3_2 axis
 symspgr : the symmetry operation no. 164 is a -3 axis
 symaxes : the symmetry operation no. 165 is a 3-axis
 symspgr : the symmetry operation no. 166 is a -3 axis
 symaxes : the symmetry operation no. 167 is a 3-axis
 symspgr : the symmetry operation no. 168 is a -3 axis
 symplanes : the symmetry operation no. 169 is a tertiary m plane
 symaxes : the symmetry operation no. 170 is a 2_1-axis
 symspgr : the symmetry operation no. 171 is a -4 axis
 symaxes : the symmetry operation no. 172 is a 4_2-axis
 symspgr : the symmetry operation no. 173 is a -4 axis
 symaxes : the symmetry operation no. 174 is a 4_2-axis
 symplanes : the symmetry operation no. 175 is a tertiary m plane
 symaxes : the symmetry operation no. 176 is a 2_1-axis
 symaxes : the symmetry operation no. 177 is a 3, 3_1 or 3_2 axis
 symspgr : the symmetry operation no. 178 is a -3 axis
 symaxes : the symmetry operation no. 179 is a 3-axis
 symspgr : the symmetry operation no. 180 is a -3 axis
 symaxes : the symmetry operation no. 181 is a 3-axis
 symspgr : the symmetry operation no. 182 is a -3 axis
 symaxes : the symmetry operation no. 183 is a 3, 3_1 or 3_2 axis
 symspgr : the symmetry operation no. 184 is a -3 axis
 symplanes : the symmetry operation no. 185 is a tertiary m plane
 symaxes : the symmetry operation no. 186 is a 2_1-axis
 symplanes : the symmetry operation no. 187 is a tertiary m plane
 symaxes : the symmetry operation no. 188 is a 2_1-axis
 symspgr : the symmetry operation no. 189 is a -4 axis
 symaxes : the symmetry operation no. 190 is a 4_2-axis
 symspgr : the symmetry operation no. 191 is a -4 axis
 symaxes : the symmetry operation no. 192 is a 4_2-axis
 symspgr : spgroup= 225  Fm -3 m   (=Oh^5)
 getkgrid : length of smallest supercell vector (bohr)=    1.520000E+01
       Simple Lattice Grid
 symkpt : found identity, with number  1

 invars1m : enter jdtset=    12
 invars1 : treat image number     1

 symlatt : the Bravais lattice is cF (face-centered cubic)
  xred   is defined in input file
 ingeo : takes atomic coordinates from input array xred

 symlatt : the Bravais lattice is cF (face-centered cubic)

 symlatt : the Bravais lattice is cF (face-centered cubic)
 symspgr : the symmetry operation no.   1 is the identity
 symspgr : the symmetry operation no.   2 is an inversion
 symaxes : the symmetry operation no.   3 is a 2-axis
 symplanes : the symmetry operation no.   4 is a mirror plane
 symaxes : the symmetry operation no.   5 is a 2-axis
 symplanes : the symmetry operation no.   6 is a mirror plane
 symaxes : the symmetry operation no.   7 is a 2-axis
 symplanes : the symmetry operation no.   8 is a mirror plane
 symplanes : the symmetry operation no.   9 is a mirror plane
 symaxes : the symmetry operation no.  10 is a 2-axis
 symspgr : the symmetry operation no.  11 is a -4 axis
 symaxes : the symmetry operation no.  12 is a 4-axis
 symplanes : the symmetry operation no.  13 is a mirror plane
 symaxes : the symmetry operation no.  14 is a 2-axis
 symspgr : the symmetry operation no.  15 is a -4 axis
 symaxes : the symmetry operation no.  16 is a 4-axis
 symaxes : the symmetry operation no.  17 is a 3-axis
 symspgr : the symmetry operation no.  18 is a -3 axis
 symaxes : the symmetry operation no.  19 is a 3-axis
 symspgr : the symmetry operation no.  20 is a -3 axis
 symaxes : the symmetry operation no.  21 is a 3-axis
 symspgr : the symmetry operation no.  22 is a -3 axis
 symaxes : the symmetry operation no.  23 is a 3-axis
 symspgr : the symmetry operation no.  24 is a -3 axis
 symplanes : the symmetry operation no.  25 is a mirror plane
 symaxes : the symmetry operation no.  26 is a 2-axis
 symspgr : the symmetry operation no.  27 is a -4 axis
 symaxes : the symmetry operation no.  28 is a 4-axis
 symspgr : the symmetry operation no.  29 is a -4 axis
 symaxes : the symmetry operation no.  30 is a 4-axis
 symplanes : the symmetry operation no.  31 is a mirror plane
 symaxes : the symmetry operation no.  32 is a 2-axis
 symaxes : the symmetry operation no.  33 is a 3-axis
 symspgr : the symmetry operation no.  34 is a -3 axis
 symaxes : the symmetry operation no.  35 is a 3-axis
 symspgr : the symmetry operation no.  36 is a -3 axis
 symaxes : the symmetry operation no.  37 is a 3-axis
 symspgr : the symmetry operation no.  38 is a -3 axis
 symaxes : the symmetry operation no.  39 is a 3-axis
 symspgr : the symmetry operation no.  40 is a -3 axis
 symplanes : the symmetry operation no.  41 is a mirror plane
 symaxes : the symmetry operation no.  42 is a 2-axis
 symplanes : the symmetry operation no.  43 is a mirror plane
 symaxes : the symmetry operation no.  44 is a 2-axis
 symspgr : the symmetry operation no.  45 is a -4 axis
 symaxes : the symmetry operation no.  46 is a 4-axis
 symspgr : the symmetry operation no.  47 is a -4 axis
 symaxes : the symmetry operation no.  48 is a 4-axis
 symspgr : the symmetry operation no.  49 is a pure translation
 symspgr : the symmetry operation no.  50 is an inversion
 symaxes : the symmetry operation no.  51 is a 2_1-axis
 symplanes : the symmetry operation no.  52 is a primary n plane
 symaxes : the symmetry operation no.  53 is a 2_1-axis
 symplanes : the symmetry operation no.  54 is a primary n plane
 symaxes : the symmetry operation no.  55 is a 2-axis
 symplanes : the symmetry operation no.  56 is a primary n plane
 symplanes : the symmetry operation no.  57 is a tertiary m plane
 symaxes : the symmetry operation no.  58 is a 2_1-axis
 symspgr : the symmetry operation no.  59 is a -4 axis
 symaxes : the symmetry operation no.  60 is a 4_2-axis
 symplanes : the symmetry operation no.  61 is a tertiary m plane
 symaxes : the symmetry operation no.  62 is a 2_1-axis
 symspgr : the symmetry operation no.  63 is a -4 axis
 symaxes : the symmetry operation no.  64 is a 4_2-axis
 symaxes : the symmetry operation no.  65 is a 3, 3_1 or 3_2 axis
 symspgr : the symmetry operation no.  66 is a -3 axis
 symaxes : the symmetry operation no.  67 is a 3-axis
 symspgr : the symmetry operation no.  68 is a -3 axis
 symaxes : the symmetry operation no.  69 is a 3, 3_1 or 3_2 axis
 symspgr : the symmetry operation no.  70 is a -3 axis
 symaxes : the symmetry operation no.  71 is a 3-axis
 symspgr : the symmetry operation no.  72 is a -3 axis
 symplanes : the symmetry operation no.  73 is a tertiary m plane
 symaxes : the symmetry operation no.  74 is a 2-axis
 symspgr : the symmetry operation no.  75 is a -4 axis
 symaxes : the symmetry operation no.  76 is a 4-axis
 symspgr : the symmetry operation no.  77 is a -4 axis
 symaxes : the symmetry operation no.  78 is a 4-axis
 symplanes : the symmetry operation no.  79 is a mirror plane
 symaxes : the symmetry operation no.  80 is a 2-axis
 symaxes : the symmetry operation no.  81 is a 3, 3_1 or 3_2 axis
 symspgr : the symmetry operation no.  82 is a -3 axis
 symaxes : the symmetry operation no.  83 is a 3, 3_1 or 3_2 axis
 symspgr : the symmetry operation no.  84 is a -3 axis
 symaxes : the symmetry operation no.  85 is a 3-axis
 symspgr : the symmetry operation no.  86 is a -3 axis
 symaxes : the symmetry operation no.  87 is a 3-axis
 symspgr : the symmetry operation no.  88 is a -3 axis
 symplanes : the symmetry operation no.  89 is a tertiary m plane
 symaxes : the symmetry operation no.  90 is a 2_1-axis
 symplanes : the symmetry operation no.  91 is a tertiary m plane
 symaxes : the symmetry operation no.  92 is a 2_1-axis
 symspgr : the symmetry operation no.  93 is a -4 axis
 symaxes : the symmetry operation no.  94 is a 4_2-axis
 symspgr : the symmetry operation no.  95 is a -4 axis
 symaxes : the symmetry operation no.  96 is a 4_2-axis
 symspgr : the symmetry operation no.  97 is a pure translation
 symspgr : the symmetry operation no.  98 is an inversion
 symaxes : the symmetry operation no.  99 is a 2-axis
 symplanes : the symmetry operation no. 100 is a primary n plane
 symaxes : the symmetry operation no. 101 is a 2_1-axis
 symplanes : the symmetry operation no. 102 is a primary n plane
 symaxes : the symmetry operation no. 103 is a 2_1-axis
 symplanes : the symmetry operation no. 104 is a primary n plane
 symplanes : the symmetry operation no. 105 is a tertiary m plane
 symaxes : the symmetry operation no. 106 is a 2_1-axis
 symspgr : the symmetry operation no. 107 is a -4 axis
 symaxes : the symmetry operation no. 108 is a 4_2-axis
 symplanes : the symmetry operation no. 109 is a tertiary m plane
 symaxes : the symmetry operation no. 110 is a 2_1-axis
 symspgr : the symmetry operation no. 111 is a -4 axis
 symaxes : the symmetry operation no. 112 is a 4_2-axis
 symaxes : the symmetry operation no. 113 is a 3, 3_1 or 3_2 axis
 symspgr : the symmetry operation no. 114 is a -3 axis
 symaxes : the symmetry operation no. 115 is a 3-axis
 symspgr : the symmetry operation no. 116 is a -3 axis
 symaxes : the symmetry operation no. 117 is a 3-axis
 symspgr : the symmetry operation no. 118 is a -3 axis
 symaxes : the symmetry operation no. 119 is a 3, 3_1 or 3_2 axis
 symspgr : the symmetry operation no. 120 is a -3 axis
 symplanes : the symmetry operation no. 121 is a tertiary m plane
 symaxes : the symmetry operation no. 122 is a 2_1-axis
 symspgr : the symmetry operation no. 123 is a -4 axis
 symaxes : the symmetry operation no. 124 is a 4_2-axis
 symspgr : the symmetry operation no. 125 is a -4 axis
 symaxes : the symmetry operation no. 126 is a 4_2-axis
 symplanes : the symmetry operation no. 127 is a tertiary m plane
 symaxes : the symmetry operation no. 128 is a 2_1-axis
 symaxes : the symmetry operation no. 129 is a 3, 3_1 or 3_2 axis
 symspgr : the symmetry operation no. 130 is a -3 axis
 symaxes : the symmetry operation no. 131 is a 3-axis
 symspgr : the symmetry operation no. 132 is a -3 axis
 symaxes : the symmetry operation no. 133 is a 3, 3_1 or 3_2 axis
 symspgr : the symmetry operation no. 134 is a -3 axis
 symaxes : the symmetry operation no. 135 is a 3-axis
 symspgr : the symmetry operation no. 136 is a -3 axis
 symplanes : the symmetry operation no. 137 is a tertiary m plane
 symaxes : the symmetry operation no. 138 is a 2-axis
 symplanes : the symmetry operation no. 139 is a mirror plane
 symaxes : the symmetry operation no. 140 is a 2-axis
 symspgr : the symmetry operation no. 141 is a -4 axis
 symaxes : the symmetry operation no. 142 is a 4-axis
 symspgr : the symmetry operation no. 143 is a -4 axis
 symaxes : the symmetry operation no. 144 is a 4-axis
 symspgr : the symmetry operation no. 145 is a pure translation
 symspgr : the symmetry operation no. 146 is an inversion
 symaxes : the symmetry operation no. 147 is a 2_1-axis
 symplanes : the symmetry operation no. 148 is a primary n plane
 symaxes : the symmetry operation no. 149 is a 2-axis
 symplanes : the symmetry operation no. 150 is a primary n plane
 symaxes : the symmetry operation no. 151 is a 2_1-axis
 symplanes : the symmetry operation no. 152 is a primary n plane
 symplanes : the symmetry operation no. 153 is a tertiary m plane
 symaxes : the symmetry operation no. 154 is a 2-axis
 symspgr : the symmetry operation no. 155 is a -4 axis
 symaxes : the symmetry operation no. 156 is a 4-axis
 symplanes : the symmetry operation no. 157 is a mirror plane
 symaxes : the symmetry operation no. 158 is a 2-axis
 symspgr : the symmetry operation no. 159 is a -4 axis
 symaxes : the symmetry operation no. 160 is a 4-axis
 symaxes : the symmetry operation no. 161 is a 3, 3_1 or 3_2 axis
 symspgr : the symmetry operation no. 162 is a -3 axis
 symaxes : the symmetry operation no. 163 is a 3, 3_1 or 3_2 axis
 symspgr : the symmetry operation no. 164 is a -3 axis
 symaxes : the symmetry operation no. 165 is a 3-axis
 symspgr : the symmetry operation no. 166 is a -3 axis
 symaxes : the symmetry operation no. 167 is a 3-axis
 symspgr : the symmetry operation no. 168 is a -3 axis
 symplanes : the symmetry operation no. 169 is a tertiary m plane
 symaxes : the symmetry operation no. 170 is a 2_1-axis
 symspgr : the symmetry operation no. 171 is a -4 axis
 symaxes : the symmetry operation no. 172 is a 4_2-axis
 symspgr : the symmetry operation no. 173 is a -4 axis
 symaxes : the symmetry operation no. 174 is a 4_2-axis
 symplanes : the symmetry operation no. 175 is a tertiary m plane
 symaxes : the symmetry operation no. 176 is a 2_1-axis
 symaxes : the symmetry operation no. 177 is a 3, 3_1 or 3_2 axis
 symspgr : the symmetry operation no. 178 is a -3 axis
 symaxes : the symmetry operation no. 179 is a 3-axis
 symspgr : the symmetry operation no. 180 is a -3 axis
 symaxes : the symmetry operation no. 181 is a 3-axis
 symspgr : the symmetry operation no. 182 is a -3 axis
 symaxes : the symmetry operation no. 183 is a 3, 3_1 or 3_2 axis
 symspgr : the symmetry operation no. 184 is a -3 axis
 symplanes : the symmetry operation no. 185 is a tertiary m plane
 symaxes : the symmetry operation no. 186 is a 2_1-axis
 symplanes : the symmetry operation no. 187 is a tertiary m plane
 symaxes : the symmetry operation no. 188 is a 2_1-axis
 symspgr : the symmetry operation no. 189 is a -4 axis
 symaxes : the symmetry operation no. 190 is a 4_2-axis
 symspgr : the symmetry operation no. 191 is a -4 axis
 symaxes : the symmetry operation no. 192 is a 4_2-axis
 symspgr : spgroup= 225  Fm -3 m   (=Oh^5)
 getkgrid : length of smallest supercell vector (bohr)=    1.520000E+01
       Simple Lattice Grid
 symkpt : found identity, with number  1

 invars1m : enter jdtset=    13
 invars1 : treat image number     1

 symlatt : the Bravais lattice is cF (face-centered cubic)
  xred   is defined in input file
 ingeo : takes atomic coordinates from input array xred

 symlatt : the Bravais lattice is cF (face-centered cubic)

 symlatt : the Bravais lattice is cF (face-centered cubic)
 symspgr : the symmetry operation no.   1 is the identity
 symspgr : the symmetry operation no.   2 is an inversion
 symaxes : the symmetry operation no.   3 is a 2-axis
 symplanes : the symmetry operation no.   4 is a mirror plane
 symaxes : the symmetry operation no.   5 is a 2-axis
 symplanes : the symmetry operation no.   6 is a mirror plane
 symaxes : the symmetry operation no.   7 is a 2-axis
 symplanes : the symmetry operation no.   8 is a mirror plane
 symplanes : the symmetry operation no.   9 is a mirror plane
 symaxes : the symmetry operation no.  10 is a 2-axis
 symspgr : the symmetry operation no.  11 is a -4 axis
 symaxes : the symmetry operation no.  12 is a 4-axis
 symplanes : the symmetry operation no.  13 is a mirror plane
 symaxes : the symmetry operation no.  14 is a 2-axis
 symspgr : the symmetry operation no.  15 is a -4 axis
 symaxes : the symmetry operation no.  16 is a 4-axis
 symaxes : the symmetry operation no.  17 is a 3-axis
 symspgr : the symmetry operation no.  18 is a -3 axis
 symaxes : the symmetry operation no.  19 is a 3-axis
 symspgr : the symmetry operation no.  20 is a -3 axis
 symaxes : the symmetry operation no.  21 is a 3-axis
 symspgr : the symmetry operation no.  22 is a -3 axis
 symaxes : the symmetry operation no.  23 is a 3-axis
 symspgr : the symmetry operation no.  24 is a -3 axis
 symplanes : the symmetry operation no.  25 is a mirror plane
 symaxes : the symmetry operation no.  26 is a 2-axis
 symspgr : the symmetry operation no.  27 is a -4 axis
 symaxes : the symmetry operation no.  28 is a 4-axis
 symspgr : the symmetry operation no.  29 is a -4 axis
 symaxes : the symmetry operation no.  30 is a 4-axis
 symplanes : the symmetry operation no.  31 is a mirror plane
 symaxes : the symmetry operation no.  32 is a 2-axis
 symaxes : the symmetry operation no.  33 is a 3-axis
 symspgr : the symmetry operation no.  34 is a -3 axis
 symaxes : the symmetry operation no.  35 is a 3-axis
 symspgr : the symmetry operation no.  36 is a -3 axis
 symaxes : the symmetry operation no.  37 is a 3-axis
 symspgr : the symmetry operation no.  38 is a -3 axis
 symaxes : the symmetry operation no.  39 is a 3-axis
 symspgr : the symmetry operation no.  40 is a -3 axis
 symplanes : the symmetry operation no.  41 is a mirror plane
 symaxes : the symmetry operation no.  42 is a 2-axis
 symplanes : the symmetry operation no.  43 is a mirror plane
 symaxes : the symmetry operation no.  44 is a 2-axis
 symspgr : the symmetry operation no.  45 is a -4 axis
 symaxes : the symmetry operation no.  46 is a 4-axis
 symspgr : the symmetry operation no.  47 is a -4 axis
 symaxes : the symmetry operation no.  48 is a 4-axis
 symspgr : the symmetry operation no.  49 is a pure translation
 symspgr : the symmetry operation no.  50 is an inversion
 symaxes : the symmetry operation no.  51 is a 2_1-axis
 symplanes : the symmetry operation no.  52 is a primary n plane
 symaxes : the symmetry operation no.  53 is a 2_1-axis
 symplanes : the symmetry operation no.  54 is a primary n plane
 symaxes : the symmetry operation no.  55 is a 2-axis
 symplanes : the symmetry operation no.  56 is a primary n plane
 symplanes : the symmetry operation no.  57 is a tertiary m plane
 symaxes : the symmetry operation no.  58 is a 2_1-axis
 symspgr : the symmetry operation no.  59 is a -4 axis
 symaxes : the symmetry operation no.  60 is a 4_2-axis
 symplanes : the symmetry operation no.  61 is a tertiary m plane
 symaxes : the symmetry operation no.  62 is a 2_1-axis
 symspgr : the symmetry operation no.  63 is a -4 axis
 symaxes : the symmetry operation no.  64 is a 4_2-axis
 symaxes : the symmetry operation no.  65 is a 3, 3_1 or 3_2 axis
 symspgr : the symmetry operation no.  66 is a -3 axis
 symaxes : the symmetry operation no.  67 is a 3-axis
 symspgr : the symmetry operation no.  68 is a -3 axis
 symaxes : the symmetry operation no.  69 is a 3, 3_1 or 3_2 axis
 symspgr : the symmetry operation no.  70 is a -3 axis
 symaxes : the symmetry operation no.  71 is a 3-axis
 symspgr : the symmetry operation no.  72 is a -3 axis
 symplanes : the symmetry operation no.  73 is a tertiary m plane
 symaxes : the symmetry operation no.  74 is a 2-axis
 symspgr : the symmetry operation no.  75 is a -4 axis
 symaxes : the symmetry operation no.  76 is a 4-axis
 symspgr : the symmetry operation no.  77 is a -4 axis
 symaxes : the symmetry operation no.  78 is a 4-axis
 symplanes : the symmetry operation no.  79 is a mirror plane
 symaxes : the symmetry operation no.  80 is a 2-axis
 symaxes : the symmetry operation no.  81 is a 3, 3_1 or 3_2 axis
 symspgr : the symmetry operation no.  82 is a -3 axis
 symaxes : the symmetry operation no.  83 is a 3, 3_1 or 3_2 axis
 symspgr : the symmetry operation no.  84 is a -3 axis
 symaxes : the symmetry operation no.  85 is a 3-axis
 symspgr : the symmetry operation no.  86 is a -3 axis
 symaxes : the symmetry operation no.  87 is a 3-axis
 symspgr : the symmetry operation no.  88 is a -3 axis
 symplanes : the symmetry operation no.  89 is a tertiary m plane
 symaxes : the symmetry operation no.  90 is a 2_1-axis
 symplanes : the symmetry operation no.  91 is a tertiary m plane
 symaxes : the symmetry operation no.  92 is a 2_1-axis
 symspgr : the symmetry operation no.  93 is a -4 axis
 symaxes : the symmetry operation no.  94 is a 4_2-axis
 symspgr : the symmetry operation no.  95 is a -4 axis
 symaxes : the symmetry operation no.  96 is a 4_2-axis
 symspgr : the symmetry operation no.  97 is a pure translation
 symspgr : the symmetry operation no.  98 is an inversion
 symaxes : the symmetry operation no.  99 is a 2-axis
 symplanes : the symmetry operation no. 100 is a primary n plane
 symaxes : the symmetry operation no. 101 is a 2_1-axis
 symplanes : the symmetry operation no. 102 is a primary n plane
 symaxes : the symmetry operation no. 103 is a 2_1-axis
 symplanes : the symmetry operation no. 104 is a primary n plane
 symplanes : the symmetry operation no. 105 is a tertiary m plane
 symaxes : the symmetry operation no. 106 is a 2_1-axis
 symspgr : the symmetry operation no. 107 is a -4 axis
 symaxes : the symmetry operation no. 108 is a 4_2-axis
 symplanes : the symmetry operation no. 109 is a tertiary m plane
 symaxes : the symmetry operation no. 110 is a 2_1-axis
 symspgr : the symmetry operation no. 111 is a -4 axis
 symaxes : the symmetry operation no. 112 is a 4_2-axis
 symaxes : the symmetry operation no. 113 is a 3, 3_1 or 3_2 axis
 symspgr : the symmetry operation no. 114 is a -3 axis
 symaxes : the symmetry operation no. 115 is a 3-axis
 symspgr : the symmetry operation no. 116 is a -3 axis
 symaxes : the symmetry operation no. 117 is a 3-axis
 symspgr : the symmetry operation no. 118 is a -3 axis
 symaxes : the symmetry operation no. 119 is a 3, 3_1 or 3_2 axis
 symspgr : the symmetry operation no. 120 is a -3 axis
 symplanes : the symmetry operation no. 121 is a tertiary m plane
 symaxes : the symmetry operation no. 122 is a 2_1-axis
 symspgr : the symmetry operation no. 123 is a -4 axis
 symaxes : the symmetry operation no. 124 is a 4_2-axis
 symspgr : the symmetry operation no. 125 is a -4 axis
 symaxes : the symmetry operation no. 126 is a 4_2-axis
 symplanes : the symmetry operation no. 127 is a tertiary m plane
 symaxes : the symmetry operation no. 128 is a 2_1-axis
 symaxes : the symmetry operation no. 129 is a 3, 3_1 or 3_2 axis
 symspgr : the symmetry operation no. 130 is a -3 axis
 symaxes : the symmetry operation no. 131 is a 3-axis
 symspgr : the symmetry operation no. 132 is a -3 axis
 symaxes : the symmetry operation no. 133 is a 3, 3_1 or 3_2 axis
 symspgr : the symmetry operation no. 134 is a -3 axis
 symaxes : the symmetry operation no. 135 is a 3-axis
 symspgr : the symmetry operation no. 136 is a -3 axis
 symplanes : the symmetry operation no. 137 is a tertiary m plane
 symaxes : the symmetry operation no. 138 is a 2-axis
 symplanes : the symmetry operation no. 139 is a mirror plane
 symaxes : the symmetry operation no. 140 is a 2-axis
 symspgr : the symmetry operation no. 141 is a -4 axis
 symaxes : the symmetry operation no. 142 is a 4-axis
 symspgr : the symmetry operation no. 143 is a -4 axis
 symaxes : the symmetry operation no. 144 is a 4-axis
 symspgr : the symmetry operation no. 145 is a pure translation
 symspgr : the symmetry operation no. 146 is an inversion
 symaxes : the symmetry operation no. 147 is a 2_1-axis
 symplanes : the symmetry operation no. 148 is a primary n plane
 symaxes : the symmetry operation no. 149 is a 2-axis
 symplanes : the symmetry operation no. 150 is a primary n plane
 symaxes : the symmetry operation no. 151 is a 2_1-axis
 symplanes : the symmetry operation no. 152 is a primary n plane
 symplanes : the symmetry operation no. 153 is a tertiary m plane
 symaxes : the symmetry operation no. 154 is a 2-axis
 symspgr : the symmetry operation no. 155 is a -4 axis
 symaxes : the symmetry operation no. 156 is a 4-axis
 symplanes : the symmetry operation no. 157 is a mirror plane
 symaxes : the symmetry operation no. 158 is a 2-axis
 symspgr : the symmetry operation no. 159 is a -4 axis
 symaxes : the symmetry operation no. 160 is a 4-axis
 symaxes : the symmetry operation no. 161 is a 3, 3_1 or 3_2 axis
 symspgr : the symmetry operation no. 162 is a -3 axis
 symaxes : the symmetry operation no. 163 is a 3, 3_1 or 3_2 axis
 symspgr : the symmetry operation no. 164 is a -3 axis
 symaxes : the symmetry operation no. 165 is a 3-axis
 symspgr : the symmetry operation no. 166 is a -3 axis
 symaxes : the symmetry operation no. 167 is a 3-axis
 symspgr : the symmetry operation no. 168 is a -3 axis
 symplanes : the symmetry operation no. 169 is a tertiary m plane
 symaxes : the symmetry operation no. 170 is a 2_1-axis
 symspgr : the symmetry operation no. 171 is a -4 axis
 symaxes : the symmetry operation no. 172 is a 4_2-axis
 symspgr : the symmetry operation no. 173 is a -4 axis
 symaxes : the symmetry operation no. 174 is a 4_2-axis
 symplanes : the symmetry operation no. 175 is a tertiary m plane
 symaxes : the symmetry operation no. 176 is a 2_1-axis
 symaxes : the symmetry operation no. 177 is a 3, 3_1 or 3_2 axis
 symspgr : the symmetry operation no. 178 is a -3 axis
 symaxes : the symmetry operation no. 179 is a 3-axis
 symspgr : the symmetry operation no. 180 is a -3 axis
 symaxes : the symmetry operation no. 181 is a 3-axis
 symspgr : the symmetry operation no. 182 is a -3 axis
 symaxes : the symmetry operation no. 183 is a 3, 3_1 or 3_2 axis
 symspgr : the symmetry operation no. 184 is a -3 axis
 symplanes : the symmetry operation no. 185 is a tertiary m plane
 symaxes : the symmetry operation no. 186 is a 2_1-axis
 symplanes : the symmetry operation no. 187 is a tertiary m plane
 symaxes : the symmetry operation no. 188 is a 2_1-axis
 symspgr : the symmetry operation no. 189 is a -4 axis
 symaxes : the symmetry operation no. 190 is a 4_2-axis
 symspgr : the symmetry operation no. 191 is a -4 axis
 symaxes : the symmetry operation no. 192 is a 4_2-axis
 symspgr : spgroup= 225  Fm -3 m   (=Oh^5)
 getkgrid : length of smallest supercell vector (bohr)=    1.520000E+01
       Simple Lattice Grid
 symkpt : found identity, with number  1

 invars1m : enter jdtset=    14
 invars1 : treat image number     1

 symlatt : the Bravais lattice is cF (face-centered cubic)
  xred   is defined in input file
 ingeo : takes atomic coordinates from input array xred

 symlatt : the Bravais lattice is cF (face-centered cubic)

 symlatt : the Bravais lattice is cF (face-centered cubic)
 symspgr : the symmetry operation no.   1 is the identity
 symspgr : the symmetry operation no.   2 is an inversion
 symaxes : the symmetry operation no.   3 is a 2-axis
 symplanes : the symmetry operation no.   4 is a mirror plane
 symaxes : the symmetry operation no.   5 is a 2-axis
 symplanes : the symmetry operation no.   6 is a mirror plane
 symaxes : the symmetry operation no.   7 is a 2-axis
 symplanes : the symmetry operation no.   8 is a mirror plane
 symplanes : the symmetry operation no.   9 is a mirror plane
 symaxes : the symmetry operation no.  10 is a 2-axis
 symspgr : the symmetry operation no.  11 is a -4 axis
 symaxes : the symmetry operation no.  12 is a 4-axis
 symplanes : the symmetry operation no.  13 is a mirror plane
 symaxes : the symmetry operation no.  14 is a 2-axis
 symspgr : the symmetry operation no.  15 is a -4 axis
 symaxes : the symmetry operation no.  16 is a 4-axis
 symaxes : the symmetry operation no.  17 is a 3-axis
 symspgr : the symmetry operation no.  18 is a -3 axis
 symaxes : the symmetry operation no.  19 is a 3-axis
 symspgr : the symmetry operation no.  20 is a -3 axis
 symaxes : the symmetry operation no.  21 is a 3-axis
 symspgr : the symmetry operation no.  22 is a -3 axis
 symaxes : the symmetry operation no.  23 is a 3-axis
 symspgr : the symmetry operation no.  24 is a -3 axis
 symplanes : the symmetry operation no.  25 is a mirror plane
 symaxes : the symmetry operation no.  26 is a 2-axis
 symspgr : the symmetry operation no.  27 is a -4 axis
 symaxes : the symmetry operation no.  28 is a 4-axis
 symspgr : the symmetry operation no.  29 is a -4 axis
 symaxes : the symmetry operation no.  30 is a 4-axis
 symplanes : the symmetry operation no.  31 is a mirror plane
 symaxes : the symmetry operation no.  32 is a 2-axis
 symaxes : the symmetry operation no.  33 is a 3-axis
 symspgr : the symmetry operation no.  34 is a -3 axis
 symaxes : the symmetry operation no.  35 is a 3-axis
 symspgr : the symmetry operation no.  36 is a -3 axis
 symaxes : the symmetry operation no.  37 is a 3-axis
 symspgr : the symmetry operation no.  38 is a -3 axis
 symaxes : the symmetry operation no.  39 is a 3-axis
 symspgr : the symmetry operation no.  40 is a -3 axis
 symplanes : the symmetry operation no.  41 is a mirror plane
 symaxes : the symmetry operation no.  42 is a 2-axis
 symplanes : the symmetry operation no.  43 is a mirror plane
 symaxes : the symmetry operation no.  44 is a 2-axis
 symspgr : the symmetry operation no.  45 is a -4 axis
 symaxes : the symmetry operation no.  46 is a 4-axis
 symspgr : the symmetry operation no.  47 is a -4 axis
 symaxes : the symmetry operation no.  48 is a 4-axis
 symspgr : the symmetry operation no.  49 is a pure translation
 symspgr : the symmetry operation no.  50 is an inversion
 symaxes : the symmetry operation no.  51 is a 2_1-axis
 symplanes : the symmetry operation no.  52 is a primary n plane
 symaxes : the symmetry operation no.  53 is a 2_1-axis
 symplanes : the symmetry operation no.  54 is a primary n plane
 symaxes : the symmetry operation no.  55 is a 2-axis
 symplanes : the symmetry operation no.  56 is a primary n plane
 symplanes : the symmetry operation no.  57 is a tertiary m plane
 symaxes : the symmetry operation no.  58 is a 2_1-axis
 symspgr : the symmetry operation no.  59 is a -4 axis
 symaxes : the symmetry operation no.  60 is a 4_2-axis
 symplanes : the symmetry operation no.  61 is a tertiary m plane
 symaxes : the symmetry operation no.  62 is a 2_1-axis
 symspgr : the symmetry operation no.  63 is a -4 axis
 symaxes : the symmetry operation no.  64 is a 4_2-axis
 symaxes : the symmetry operation no.  65 is a 3, 3_1 or 3_2 axis
 symspgr : the symmetry operation no.  66 is a -3 axis
 symaxes : the symmetry operation no.  67 is a 3-axis
 symspgr : the symmetry operation no.  68 is a -3 axis
 symaxes : the symmetry operation no.  69 is a 3, 3_1 or 3_2 axis
 symspgr : the symmetry operation no.  70 is a -3 axis
 symaxes : the symmetry operation no.  71 is a 3-axis
 symspgr : the symmetry operation no.  72 is a -3 axis
 symplanes : the symmetry operation no.  73 is a tertiary m plane
 symaxes : the symmetry operation no.  74 is a 2-axis
 symspgr : the symmetry operation no.  75 is a -4 axis
 symaxes : the symmetry operation no.  76 is a 4-axis
 symspgr : the symmetry operation no.  77 is a -4 axis
 symaxes : the symmetry operation no.  78 is a 4-axis
 symplanes : the symmetry operation no.  79 is a mirror plane
 symaxes : the symmetry operation no.  80 is a 2-axis
 symaxes : the symmetry operation no.  81 is a 3, 3_1 or 3_2 axis
 symspgr : the symmetry operation no.  82 is a -3 axis
 symaxes : the symmetry operation no.  83 is a 3, 3_1 or 3_2 axis
 symspgr : the symmetry operation no.  84 is a -3 axis
 symaxes : the symmetry operation no.  85 is a 3-axis
 symspgr : the symmetry operation no.  86 is a -3 axis
 symaxes : the symmetry operation no.  87 is a 3-axis
 symspgr : the symmetry operation no.  88 is a -3 axis
 symplanes : the symmetry operation no.  89 is a tertiary m plane
 symaxes : the symmetry operation no.  90 is a 2_1-axis
 symplanes : the symmetry operation no.  91 is a tertiary m plane
 symaxes : the symmetry operation no.  92 is a 2_1-axis
 symspgr : the symmetry operation no.  93 is a -4 axis
 symaxes : the symmetry operation no.  94 is a 4_2-axis
 symspgr : the symmetry operation no.  95 is a -4 axis
 symaxes : the symmetry operation no.  96 is a 4_2-axis
 symspgr : the symmetry operation no.  97 is a pure translation
 symspgr : the symmetry operation no.  98 is an inversion
 symaxes : the symmetry operation no.  99 is a 2-axis
 symplanes : the symmetry operation no. 100 is a primary n plane
 symaxes : the symmetry operation no. 101 is a 2_1-axis
 symplanes : the symmetry operation no. 102 is a primary n plane
 symaxes : the symmetry operation no. 103 is a 2_1-axis
 symplanes : the symmetry operation no. 104 is a primary n plane
 symplanes : the symmetry operation no. 105 is a tertiary m plane
 symaxes : the symmetry operation no. 106 is a 2_1-axis
 symspgr : the symmetry operation no. 107 is a -4 axis
 symaxes : the symmetry operation no. 108 is a 4_2-axis
 symplanes : the symmetry operation no. 109 is a tertiary m plane
 symaxes : the symmetry operation no. 110 is a 2_1-axis
 symspgr : the symmetry operation no. 111 is a -4 axis
 symaxes : the symmetry operation no. 112 is a 4_2-axis
 symaxes : the symmetry operation no. 113 is a 3, 3_1 or 3_2 axis
 symspgr : the symmetry operation no. 114 is a -3 axis
 symaxes : the symmetry operation no. 115 is a 3-axis
 symspgr : the symmetry operation no. 116 is a -3 axis
 symaxes : the symmetry operation no. 117 is a 3-axis
 symspgr : the symmetry operation no. 118 is a -3 axis
 symaxes : the symmetry operation no. 119 is a 3, 3_1 or 3_2 axis
 symspgr : the symmetry operation no. 120 is a -3 axis
 symplanes : the symmetry operation no. 121 is a tertiary m plane
 symaxes : the symmetry operation no. 122 is a 2_1-axis
 symspgr : the symmetry operation no. 123 is a -4 axis
 symaxes : the symmetry operation no. 124 is a 4_2-axis
 symspgr : the symmetry operation no. 125 is a -4 axis
 symaxes : the symmetry operation no. 126 is a 4_2-axis
 symplanes : the symmetry operation no. 127 is a tertiary m plane
 symaxes : the symmetry operation no. 128 is a 2_1-axis
 symaxes : the symmetry operation no. 129 is a 3, 3_1 or 3_2 axis
 symspgr : the symmetry operation no. 130 is a -3 axis
 symaxes : the symmetry operation no. 131 is a 3-axis
 symspgr : the symmetry operation no. 132 is a -3 axis
 symaxes : the symmetry operation no. 133 is a 3, 3_1 or 3_2 axis
 symspgr : the symmetry operation no. 134 is a -3 axis
 symaxes : the symmetry operation no. 135 is a 3-axis
 symspgr : the symmetry operation no. 136 is a -3 axis
 symplanes : the symmetry operation no. 137 is a tertiary m plane
 symaxes : the symmetry operation no. 138 is a 2-axis
 symplanes : the symmetry operation no. 139 is a mirror plane
 symaxes : the symmetry operation no. 140 is a 2-axis
 symspgr : the symmetry operation no. 141 is a -4 axis
 symaxes : the symmetry operation no. 142 is a 4-axis
 symspgr : the symmetry operation no. 143 is a -4 axis
 symaxes : the symmetry operation no. 144 is a 4-axis
 symspgr : the symmetry operation no. 145 is a pure translation
 symspgr : the symmetry operation no. 146 is an inversion
 symaxes : the symmetry operation no. 147 is a 2_1-axis
 symplanes : the symmetry operation no. 148 is a primary n plane
 symaxes : the symmetry operation no. 149 is a 2-axis
 symplanes : the symmetry operation no. 150 is a primary n plane
 symaxes : the symmetry operation no. 151 is a 2_1-axis
 symplanes : the symmetry operation no. 152 is a primary n plane
 symplanes : the symmetry operation no. 153 is a tertiary m plane
 symaxes : the symmetry operation no. 154 is a 2-axis
 symspgr : the symmetry operation no. 155 is a -4 axis
 symaxes : the symmetry operation no. 156 is a 4-axis
 symplanes : the symmetry operation no. 157 is a mirror plane
 symaxes : the symmetry operation no. 158 is a 2-axis
 symspgr : the symmetry operation no. 159 is a -4 axis
 symaxes : the symmetry operation no. 160 is a 4-axis
 symaxes : the symmetry operation no. 161 is a 3, 3_1 or 3_2 axis
 symspgr : the symmetry operation no. 162 is a -3 axis
 symaxes : the symmetry operation no. 163 is a 3, 3_1 or 3_2 axis
 symspgr : the symmetry operation no. 164 is a -3 axis
 symaxes : the symmetry operation no. 165 is a 3-axis
 symspgr : the symmetry operation no. 166 is a -3 axis
 symaxes : the symmetry operation no. 167 is a 3-axis
 symspgr : the symmetry operation no. 168 is a -3 axis
 symplanes : the symmetry operation no. 169 is a tertiary m plane
 symaxes : the symmetry operation no. 170 is a 2_1-axis
 symspgr : the symmetry operation no. 171 is a -4 axis
 symaxes : the symmetry operation no. 172 is a 4_2-axis
 symspgr : the symmetry operation no. 173 is a -4 axis
 symaxes : the symmetry operation no. 174 is a 4_2-axis
 symplanes : the symmetry operation no. 175 is a tertiary m plane
 symaxes : the symmetry operation no. 176 is a 2_1-axis
 symaxes : the symmetry operation no. 177 is a 3, 3_1 or 3_2 axis
 symspgr : the symmetry operation no. 178 is a -3 axis
 symaxes : the symmetry operation no. 179 is a 3-axis
 symspgr : the symmetry operation no. 180 is a -3 axis
 symaxes : the symmetry operation no. 181 is a 3-axis
 symspgr : the symmetry operation no. 182 is a -3 axis
 symaxes : the symmetry operation no. 183 is a 3, 3_1 or 3_2 axis
 symspgr : the symmetry operation no. 184 is a -3 axis
 symplanes : the symmetry operation no. 185 is a tertiary m plane
 symaxes : the symmetry operation no. 186 is a 2_1-axis
 symplanes : the symmetry operation no. 187 is a tertiary m plane
 symaxes : the symmetry operation no. 188 is a 2_1-axis
 symspgr : the symmetry operation no. 189 is a -4 axis
 symaxes : the symmetry operation no. 190 is a 4_2-axis
 symspgr : the symmetry operation no. 191 is a -4 axis
 symaxes : the symmetry operation no. 192 is a 4_2-axis
 symspgr : spgroup= 225  Fm -3 m   (=Oh^5)
 getkgrid : length of smallest supercell vector (bohr)=    1.520000E+01
       Simple Lattice Grid
 symkpt : found identity, with number  1

 invars1m : enter jdtset=    21
 invars1 : treat image number     1

 symlatt : the Bravais lattice is cF (face-centered cubic)
  xred   is defined in input file
 ingeo : takes atomic coordinates from input array xred

 symlatt : the Bravais lattice is cF (face-centered cubic)

 symlatt : the Bravais lattice is cF (face-centered cubic)
 symspgr : the symmetry operation no.   1 is the identity
 symspgr : the symmetry operation no.   2 is an inversion
 symaxes : the symmetry operation no.   3 is a 2-axis
 symplanes : the symmetry operation no.   4 is a mirror plane
 symaxes : the symmetry operation no.   5 is a 2-axis
 symplanes : the symmetry operation no.   6 is a mirror plane
 symaxes : the symmetry operation no.   7 is a 2-axis
 symplanes : the symmetry operation no.   8 is a mirror plane
 symplanes : the symmetry operation no.   9 is a mirror plane
 symaxes : the symmetry operation no.  10 is a 2-axis
 symspgr : the symmetry operation no.  11 is a -4 axis
 symaxes : the symmetry operation no.  12 is a 4-axis
 symplanes : the symmetry operation no.  13 is a mirror plane
 symaxes : the symmetry operation no.  14 is a 2-axis
 symspgr : the symmetry operation no.  15 is a -4 axis
 symaxes : the symmetry operation no.  16 is a 4-axis
 symaxes : the symmetry operation no.  17 is a 3-axis
 symspgr : the symmetry operation no.  18 is a -3 axis
 symaxes : the symmetry operation no.  19 is a 3-axis
 symspgr : the symmetry operation no.  20 is a -3 axis
 symaxes : the symmetry operation no.  21 is a 3-axis
 symspgr : the symmetry operation no.  22 is a -3 axis
 symaxes : the symmetry operation no.  23 is a 3-axis
 symspgr : the symmetry operation no.  24 is a -3 axis
 symplanes : the symmetry operation no.  25 is a mirror plane
 symaxes : the symmetry operation no.  26 is a 2-axis
 symspgr : the symmetry operation no.  27 is a -4 axis
 symaxes : the symmetry operation no.  28 is a 4-axis
 symspgr : the symmetry operation no.  29 is a -4 axis
 symaxes : the symmetry operation no.  30 is a 4-axis
 symplanes : the symmetry operation no.  31 is a mirror plane
 symaxes : the symmetry operation no.  32 is a 2-axis
 symaxes : the symmetry operation no.  33 is a 3-axis
 symspgr : the symmetry operation no.  34 is a -3 axis
 symaxes : the symmetry operation no.  35 is a 3-axis
 symspgr : the symmetry operation no.  36 is a -3 axis
 symaxes : the symmetry operation no.  37 is a 3-axis
 symspgr : the symmetry operation no.  38 is a -3 axis
 symaxes : the symmetry operation no.  39 is a 3-axis
 symspgr : the symmetry operation no.  40 is a -3 axis
 symplanes : the symmetry operation no.  41 is a mirror plane
 symaxes : the symmetry operation no.  42 is a 2-axis
 symplanes : the symmetry operation no.  43 is a mirror plane
 symaxes : the symmetry operation no.  44 is a 2-axis
 symspgr : the symmetry operation no.  45 is a -4 axis
 symaxes : the symmetry operation no.  46 is a 4-axis
 symspgr : the symmetry operation no.  47 is a -4 axis
 symaxes : the symmetry operation no.  48 is a 4-axis
 symspgr : the symmetry operation no.  49 is a pure translation
 symspgr : the symmetry operation no.  50 is an inversion
 symaxes : the symmetry operation no.  51 is a 2_1-axis
 symplanes : the symmetry operation no.  52 is a primary n plane
 symaxes : the symmetry operation no.  53 is a 2_1-axis
 symplanes : the symmetry operation no.  54 is a primary n plane
 symaxes : the symmetry operation no.  55 is a 2-axis
 symplanes : the symmetry operation no.  56 is a primary n plane
 symplanes : the symmetry operation no.  57 is a tertiary m plane
 symaxes : the symmetry operation no.  58 is a 2_1-axis
 symspgr : the symmetry operation no.  59 is a -4 axis
 symaxes : the symmetry operation no.  60 is a 4_2-axis
 symplanes : the symmetry operation no.  61 is a tertiary m plane
 symaxes : the symmetry operation no.  62 is a 2_1-axis
 symspgr : the symmetry operation no.  63 is a -4 axis
 symaxes : the symmetry operation no.  64 is a 4_2-axis
 symaxes : the symmetry operation no.  65 is a 3, 3_1 or 3_2 axis
 symspgr : the symmetry operation no.  66 is a -3 axis
 symaxes : the symmetry operation no.  67 is a 3-axis
 symspgr : the symmetry operation no.  68 is a -3 axis
 symaxes : the symmetry operation no.  69 is a 3, 3_1 or 3_2 axis
 symspgr : the symmetry operation no.  70 is a -3 axis
 symaxes : the symmetry operation no.  71 is a 3-axis
 symspgr : the symmetry operation no.  72 is a -3 axis
 symplanes : the symmetry operation no.  73 is a tertiary m plane
 symaxes : the symmetry operation no.  74 is a 2-axis
 symspgr : the symmetry operation no.  75 is a -4 axis
 symaxes : the symmetry operation no.  76 is a 4-axis
 symspgr : the symmetry operation no.  77 is a -4 axis
 symaxes : the symmetry operation no.  78 is a 4-axis
 symplanes : the symmetry operation no.  79 is a mirror plane
 symaxes : the symmetry operation no.  80 is a 2-axis
 symaxes : the symmetry operation no.  81 is a 3, 3_1 or 3_2 axis
 symspgr : the symmetry operation no.  82 is a -3 axis
 symaxes : the symmetry operation no.  83 is a 3, 3_1 or 3_2 axis
 symspgr : the symmetry operation no.  84 is a -3 axis
 symaxes : the symmetry operation no.  85 is a 3-axis
 symspgr : the symmetry operation no.  86 is a -3 axis
 symaxes : the symmetry operation no.  87 is a 3-axis
 symspgr : the symmetry operation no.  88 is a -3 axis
 symplanes : the symmetry operation no.  89 is a tertiary m plane
 symaxes : the symmetry operation no.  90 is a 2_1-axis
 symplanes : the symmetry operation no.  91 is a tertiary m plane
 symaxes : the symmetry operation no.  92 is a 2_1-axis
 symspgr : the symmetry operation no.  93 is a -4 axis
 symaxes : the symmetry operation no.  94 is a 4_2-axis
 symspgr : the symmetry operation no.  95 is a -4 axis
 symaxes : the symmetry operation no.  96 is a 4_2-axis
 symspgr : the symmetry operation no.  97 is a pure translation
 symspgr : the symmetry operation no.  98 is an inversion
 symaxes : the symmetry operation no.  99 is a 2-axis
 symplanes : the symmetry operation no. 100 is a primary n plane
 symaxes : the symmetry operation no. 101 is a 2_1-axis
 symplanes : the symmetry operation no. 102 is a primary n plane
 symaxes : the symmetry operation no. 103 is a 2_1-axis
 symplanes : the symmetry operation no. 104 is a primary n plane
 symplanes : the symmetry operation no. 105 is a tertiary m plane
 symaxes : the symmetry operation no. 106 is a 2_1-axis
 symspgr : the symmetry operation no. 107 is a -4 axis
 symaxes : the symmetry operation no. 108 is a 4_2-axis
 symplanes : the symmetry operation no. 109 is a tertiary m plane
 symaxes : the symmetry operation no. 110 is a 2_1-axis
 symspgr : the symmetry operation no. 111 is a -4 axis
 symaxes : the symmetry operation no. 112 is a 4_2-axis
 symaxes : the symmetry operation no. 113 is a 3, 3_1 or 3_2 axis
 symspgr : the symmetry operation no. 114 is a -3 axis
 symaxes : the symmetry operation no. 115 is a 3-axis
 symspgr : the symmetry operation no. 116 is a -3 axis
 symaxes : the symmetry operation no. 117 is a 3-axis
 symspgr : the symmetry operation no. 118 is a -3 axis
 symaxes : the symmetry operation no. 119 is a 3, 3_1 or 3_2 axis
 symspgr : the symmetry operation no. 120 is a -3 axis
 symplanes : the symmetry operation no. 121 is a tertiary m plane
 symaxes : the symmetry operation no. 122 is a 2_1-axis
 symspgr : the symmetry operation no. 123 is a -4 axis
 symaxes : the symmetry operation no. 124 is a 4_2-axis
 symspgr : the symmetry operation no. 125 is a -4 axis
 symaxes : the symmetry operation no. 126 is a 4_2-axis
 symplanes : the symmetry operation no. 127 is a tertiary m plane
 symaxes : the symmetry operation no. 128 is a 2_1-axis
 symaxes : the symmetry operation no. 129 is a 3, 3_1 or 3_2 axis
 symspgr : the symmetry operation no. 130 is a -3 axis
 symaxes : the symmetry operation no. 131 is a 3-axis
 symspgr : the symmetry operation no. 132 is a -3 axis
 symaxes : the symmetry operation no. 133 is a 3, 3_1 or 3_2 axis
 symspgr : the symmetry operation no. 134 is a -3 axis
 symaxes : the symmetry operation no. 135 is a 3-axis
 symspgr : the symmetry operation no. 136 is a -3 axis
 symplanes : the symmetry operation no. 137 is a tertiary m plane
 symaxes : the symmetry operation no. 138 is a 2-axis
 symplanes : the symmetry operation no. 139 is a mirror plane
 symaxes : the symmetry operation no. 140 is a 2-axis
 symspgr : the symmetry operation no. 141 is a -4 axis
 symaxes : the symmetry operation no. 142 is a 4-axis
 symspgr : the symmetry operation no. 143 is a -4 axis
 symaxes : the symmetry operation no. 144 is a 4-axis
 symspgr : the symmetry operation no. 145 is a pure translation
 symspgr : the symmetry operation no. 146 is an inversion
 symaxes : the symmetry operation no. 147 is a 2_1-axis
 symplanes : the symmetry operation no. 148 is a primary n plane
 symaxes : the symmetry operation no. 149 is a 2-axis
 symplanes : the symmetry operation no. 150 is a primary n plane
 symaxes : the symmetry operation no. 151 is a 2_1-axis
 symplanes : the symmetry operation no. 152 is a primary n plane
 symplanes : the symmetry operation no. 153 is a tertiary m plane
 symaxes : the symmetry operation no. 154 is a 2-axis
 symspgr : the symmetry operation no. 155 is a -4 axis
 symaxes : the symmetry operation no. 156 is a 4-axis
 symplanes : the symmetry operation no. 157 is a mirror plane
 symaxes : the symmetry operation no. 158 is a 2-axis
 symspgr : the symmetry operation no. 159 is a -4 axis
 symaxes : the symmetry operation no. 160 is a 4-axis
 symaxes : the symmetry operation no. 161 is a 3, 3_1 or 3_2 axis
 symspgr : the symmetry operation no. 162 is a -3 axis
 symaxes : the symmetry operation no. 163 is a 3, 3_1 or 3_2 axis
 symspgr : the symmetry operation no. 164 is a -3 axis
 symaxes : the symmetry operation no. 165 is a 3-axis
 symspgr : the symmetry operation no. 166 is a -3 axis
 symaxes : the symmetry operation no. 167 is a 3-axis
 symspgr : the symmetry operation no. 168 is a -3 axis
 symplanes : the symmetry operation no. 169 is a tertiary m plane
 symaxes : the symmetry operation no. 170 is a 2_1-axis
 symspgr : the symmetry operation no. 171 is a -4 axis
 symaxes : the symmetry operation no. 172 is a 4_2-axis
 symspgr : the symmetry operation no. 173 is a -4 axis
 symaxes : the symmetry operation no. 174 is a 4_2-axis
 symplanes : the symmetry operation no. 175 is a tertiary m plane
 symaxes : the symmetry operation no. 176 is a 2_1-axis
 symaxes : the symmetry operation no. 177 is a 3, 3_1 or 3_2 axis
 symspgr : the symmetry operation no. 178 is a -3 axis
 symaxes : the symmetry operation no. 179 is a 3-axis
 symspgr : the symmetry operation no. 180 is a -3 axis
 symaxes : the symmetry operation no. 181 is a 3-axis
 symspgr : the symmetry operation no. 182 is a -3 axis
 symaxes : the symmetry operation no. 183 is a 3, 3_1 or 3_2 axis
 symspgr : the symmetry operation no. 184 is a -3 axis
 symplanes : the symmetry operation no. 185 is a tertiary m plane
 symaxes : the symmetry operation no. 186 is a 2_1-axis
 symplanes : the symmetry operation no. 187 is a tertiary m plane
 symaxes : the symmetry operation no. 188 is a 2_1-axis
 symspgr : the symmetry operation no. 189 is a -4 axis
 symaxes : the symmetry operation no. 190 is a 4_2-axis
 symspgr : the symmetry operation no. 191 is a -4 axis
 symaxes : the symmetry operation no. 192 is a 4_2-axis
 symspgr : spgroup= 225  Fm -3 m   (=Oh^5)
 getkgrid : length of smallest supercell vector (bohr)=    3.040000E+01
       Simple Lattice Grid
 symkpt : found identity, with number  1

 invars1m : enter jdtset=    22
 invars1 : treat image number     1

 symlatt : the Bravais lattice is cF (face-centered cubic)
  xred   is defined in input file
 ingeo : takes atomic coordinates from input array xred

 symlatt : the Bravais lattice is cF (face-centered cubic)

 symlatt : the Bravais lattice is cF (face-centered cubic)
 symspgr : the symmetry operation no.   1 is the identity
 symspgr : the symmetry operation no.   2 is an inversion
 symaxes : the symmetry operation no.   3 is a 2-axis
 symplanes : the symmetry operation no.   4 is a mirror plane
 symaxes : the symmetry operation no.   5 is a 2-axis
 symplanes : the symmetry operation no.   6 is a mirror plane
 symaxes : the symmetry operation no.   7 is a 2-axis
 symplanes : the symmetry operation no.   8 is a mirror plane
 symplanes : the symmetry operation no.   9 is a mirror plane
 symaxes : the symmetry operation no.  10 is a 2-axis
 symspgr : the symmetry operation no.  11 is a -4 axis
 symaxes : the symmetry operation no.  12 is a 4-axis
 symplanes : the symmetry operation no.  13 is a mirror plane
 symaxes : the symmetry operation no.  14 is a 2-axis
 symspgr : the symmetry operation no.  15 is a -4 axis
 symaxes : the symmetry operation no.  16 is a 4-axis
 symaxes : the symmetry operation no.  17 is a 3-axis
 symspgr : the symmetry operation no.  18 is a -3 axis
 symaxes : the symmetry operation no.  19 is a 3-axis
 symspgr : the symmetry operation no.  20 is a -3 axis
 symaxes : the symmetry operation no.  21 is a 3-axis
 symspgr : the symmetry operation no.  22 is a -3 axis
 symaxes : the symmetry operation no.  23 is a 3-axis
 symspgr : the symmetry operation no.  24 is a -3 axis
 symplanes : the symmetry operation no.  25 is a mirror plane
 symaxes : the symmetry operation no.  26 is a 2-axis
 symspgr : the symmetry operation no.  27 is a -4 axis
 symaxes : the symmetry operation no.  28 is a 4-axis
 symspgr : the symmetry operation no.  29 is a -4 axis
 symaxes : the symmetry operation no.  30 is a 4-axis
 symplanes : the symmetry operation no.  31 is a mirror plane
 symaxes : the symmetry operation no.  32 is a 2-axis
 symaxes : the symmetry operation no.  33 is a 3-axis
 symspgr : the symmetry operation no.  34 is a -3 axis
 symaxes : the symmetry operation no.  35 is a 3-axis
 symspgr : the symmetry operation no.  36 is a -3 axis
 symaxes : the symmetry operation no.  37 is a 3-axis
 symspgr : the symmetry operation no.  38 is a -3 axis
 symaxes : the symmetry operation no.  39 is a 3-axis
 symspgr : the symmetry operation no.  40 is a -3 axis
 symplanes : the symmetry operation no.  41 is a mirror plane
 symaxes : the symmetry operation no.  42 is a 2-axis
 symplanes : the symmetry operation no.  43 is a mirror plane
 symaxes : the symmetry operation no.  44 is a 2-axis
 symspgr : the symmetry operation no.  45 is a -4 axis
 symaxes : the symmetry operation no.  46 is a 4-axis
 symspgr : the symmetry operation no.  47 is a -4 axis
 symaxes : the symmetry operation no.  48 is a 4-axis
 symspgr : the symmetry operation no.  49 is a pure translation
 symspgr : the symmetry operation no.  50 is an inversion
 symaxes : the symmetry operation no.  51 is a 2_1-axis
 symplanes : the symmetry operation no.  52 is a primary n plane
 symaxes : the symmetry operation no.  53 is a 2_1-axis
 symplanes : the symmetry operation no.  54 is a primary n plane
 symaxes : the symmetry operation no.  55 is a 2-axis
 symplanes : the symmetry operation no.  56 is a primary n plane
 symplanes : the symmetry operation no.  57 is a tertiary m plane
 symaxes : the symmetry operation no.  58 is a 2_1-axis
 symspgr : the symmetry operation no.  59 is a -4 axis
 symaxes : the symmetry operation no.  60 is a 4_2-axis
 symplanes : the symmetry operation no.  61 is a tertiary m plane
 symaxes : the symmetry operation no.  62 is a 2_1-axis
 symspgr : the symmetry operation no.  63 is a -4 axis
 symaxes : the symmetry operation no.  64 is a 4_2-axis
 symaxes : the symmetry operation no.  65 is a 3, 3_1 or 3_2 axis
 symspgr : the symmetry operation no.  66 is a -3 axis
 symaxes : the symmetry operation no.  67 is a 3-axis
 symspgr : the symmetry operation no.  68 is a -3 axis
 symaxes : the symmetry operation no.  69 is a 3, 3_1 or 3_2 axis
 symspgr : the symmetry operation no.  70 is a -3 axis
 symaxes : the symmetry operation no.  71 is a 3-axis
 symspgr : the symmetry operation no.  72 is a -3 axis
 symplanes : the symmetry operation no.  73 is a tertiary m plane
 symaxes : the symmetry operation no.  74 is a 2-axis
 symspgr : the symmetry operation no.  75 is a -4 axis
 symaxes : the symmetry operation no.  76 is a 4-axis
 symspgr : the symmetry operation no.  77 is a -4 axis
 symaxes : the symmetry operation no.  78 is a 4-axis
 symplanes : the symmetry operation no.  79 is a mirror plane
 symaxes : the symmetry operation no.  80 is a 2-axis
 symaxes : the symmetry operation no.  81 is a 3, 3_1 or 3_2 axis
 symspgr : the symmetry operation no.  82 is a -3 axis
 symaxes : the symmetry operation no.  83 is a 3, 3_1 or 3_2 axis
 symspgr : the symmetry operation no.  84 is a -3 axis
 symaxes : the symmetry operation no.  85 is a 3-axis
 symspgr : the symmetry operation no.  86 is a -3 axis
 symaxes : the symmetry operation no.  87 is a 3-axis
 symspgr : the symmetry operation no.  88 is a -3 axis
 symplanes : the symmetry operation no.  89 is a tertiary m plane
 symaxes : the symmetry operation no.  90 is a 2_1-axis
 symplanes : the symmetry operation no.  91 is a tertiary m plane
 symaxes : the symmetry operation no.  92 is a 2_1-axis
 symspgr : the symmetry operation no.  93 is a -4 axis
 symaxes : the symmetry operation no.  94 is a 4_2-axis
 symspgr : the symmetry operation no.  95 is a -4 axis
 symaxes : the symmetry operation no.  96 is a 4_2-axis
 symspgr : the symmetry operation no.  97 is a pure translation
 symspgr : the symmetry operation no.  98 is an inversion
 symaxes : the symmetry operation no.  99 is a 2-axis
 symplanes : the symmetry operation no. 100 is a primary n plane
 symaxes : the symmetry operation no. 101 is a 2_1-axis
 symplanes : the symmetry operation no. 102 is a primary n plane
 symaxes : the symmetry operation no. 103 is a 2_1-axis
 symplanes : the symmetry operation no. 104 is a primary n plane
 symplanes : the symmetry operation no. 105 is a tertiary m plane
 symaxes : the symmetry operation no. 106 is a 2_1-axis
 symspgr : the symmetry operation no. 107 is a -4 axis
 symaxes : the symmetry operation no. 108 is a 4_2-axis
 symplanes : the symmetry operation no. 109 is a tertiary m plane
 symaxes : the symmetry operation no. 110 is a 2_1-axis
 symspgr : the symmetry operation no. 111 is a -4 axis
 symaxes : the symmetry operation no. 112 is a 4_2-axis
 symaxes : the symmetry operation no. 113 is a 3, 3_1 or 3_2 axis
 symspgr : the symmetry operation no. 114 is a -3 axis
 symaxes : the symmetry operation no. 115 is a 3-axis
 symspgr : the symmetry operation no. 116 is a -3 axis
 symaxes : the symmetry operation no. 117 is a 3-axis
 symspgr : the symmetry operation no. 118 is a -3 axis
 symaxes : the symmetry operation no. 119 is a 3, 3_1 or 3_2 axis
 symspgr : the symmetry operation no. 120 is a -3 axis
 symplanes : the symmetry operation no. 121 is a tertiary m plane
 symaxes : the symmetry operation no. 122 is a 2_1-axis
 symspgr : the symmetry operation no. 123 is a -4 axis
 symaxes : the symmetry operation no. 124 is a 4_2-axis
 symspgr : the symmetry operation no. 125 is a -4 axis
 symaxes : the symmetry operation no. 126 is a 4_2-axis
 symplanes : the symmetry operation no. 127 is a tertiary m plane
 symaxes : the symmetry operation no. 128 is a 2_1-axis
 symaxes : the symmetry operation no. 129 is a 3, 3_1 or 3_2 axis
 symspgr : the symmetry operation no. 130 is a -3 axis
 symaxes : the symmetry operation no. 131 is a 3-axis
 symspgr : the symmetry operation no. 132 is a -3 axis
 symaxes : the symmetry operation no. 133 is a 3, 3_1 or 3_2 axis
 symspgr : the symmetry operation no. 134 is a -3 axis
 symaxes : the symmetry operation no. 135 is a 3-axis
 symspgr : the symmetry operation no. 136 is a -3 axis
 symplanes : the symmetry operation no. 137 is a tertiary m plane
 symaxes : the symmetry operation no. 138 is a 2-axis
 symplanes : the symmetry operation no. 139 is a mirror plane
 symaxes : the symmetry operation no. 140 is a 2-axis
 symspgr : the symmetry operation no. 141 is a -4 axis
 symaxes : the symmetry operation no. 142 is a 4-axis
 symspgr : the symmetry operation no. 143 is a -4 axis
 symaxes : the symmetry operation no. 144 is a 4-axis
 symspgr : the symmetry operation no. 145 is a pure translation
 symspgr : the symmetry operation no. 146 is an inversion
 symaxes : the symmetry operation no. 147 is a 2_1-axis
 symplanes : the symmetry operation no. 148 is a primary n plane
 symaxes : the symmetry operation no. 149 is a 2-axis
 symplanes : the symmetry operation no. 150 is a primary n plane
 symaxes : the symmetry operation no. 151 is a 2_1-axis
 symplanes : the symmetry operation no. 152 is a primary n plane
 symplanes : the symmetry operation no. 153 is a tertiary m plane
 symaxes : the symmetry operation no. 154 is a 2-axis
 symspgr : the symmetry operation no. 155 is a -4 axis
 symaxes : the symmetry operation no. 156 is a 4-axis
 symplanes : the symmetry operation no. 157 is a mirror plane
 symaxes : the symmetry operation no. 158 is a 2-axis
 symspgr : the symmetry operation no. 159 is a -4 axis
 symaxes : the symmetry operation no. 160 is a 4-axis
 symaxes : the symmetry operation no. 161 is a 3, 3_1 or 3_2 axis
 symspgr : the symmetry operation no. 162 is a -3 axis
 symaxes : the symmetry operation no. 163 is a 3, 3_1 or 3_2 axis
 symspgr : the symmetry operation no. 164 is a -3 axis
 symaxes : the symmetry operation no. 165 is a 3-axis
 symspgr : the symmetry operation no. 166 is a -3 axis
 symaxes : the symmetry operation no. 167 is a 3-axis
 symspgr : the symmetry operation no. 168 is a -3 axis
 symplanes : the symmetry operation no. 169 is a tertiary m plane
 symaxes : the symmetry operation no. 170 is a 2_1-axis
 symspgr : the symmetry operation no. 171 is a -4 axis
 symaxes : the symmetry operation no. 172 is a 4_2-axis
 symspgr : the symmetry operation no. 173 is a -4 axis
 symaxes : the symmetry operation no. 174 is a 4_2-axis
 symplanes : the symmetry operation no. 175 is a tertiary m plane
 symaxes : the symmetry operation no. 176 is a 2_1-axis
 symaxes : the symmetry operation no. 177 is a 3, 3_1 or 3_2 axis
 symspgr : the symmetry operation no. 178 is a -3 axis
 symaxes : the symmetry operation no. 179 is a 3-axis
 symspgr : the symmetry operation no. 180 is a -3 axis
 symaxes : the symmetry operation no. 181 is a 3-axis
 symspgr : the symmetry operation no. 182 is a -3 axis
 symaxes : the symmetry operation no. 183 is a 3, 3_1 or 3_2 axis
 symspgr : the symmetry operation no. 184 is a -3 axis
 symplanes : the symmetry operation no. 185 is a tertiary m plane
 symaxes : the symmetry operation no. 186 is a 2_1-axis
 symplanes : the symmetry operation no. 187 is a tertiary m plane
 symaxes : the symmetry operation no. 188 is a 2_1-axis
 symspgr : the symmetry operation no. 189 is a -4 axis
 symaxes : the symmetry operation no. 190 is a 4_2-axis
 symspgr : the symmetry operation no. 191 is a -4 axis
 symaxes : the symmetry operation no. 192 is a 4_2-axis
 symspgr : spgroup= 225  Fm -3 m   (=Oh^5)
 getkgrid : length of smallest supercell vector (bohr)=    3.040000E+01
       Simple Lattice Grid
 symkpt : found identity, with number  1

 invars1m : enter jdtset=    23
 invars1 : treat image number     1

 symlatt : the Bravais lattice is cF (face-centered cubic)
  xred   is defined in input file
 ingeo : takes atomic coordinates from input array xred

 symlatt : the Bravais lattice is cF (face-centered cubic)

 symlatt : the Bravais lattice is cF (face-centered cubic)
 symspgr : the symmetry operation no.   1 is the identity
 symspgr : the symmetry operation no.   2 is an inversion
 symaxes : the symmetry operation no.   3 is a 2-axis
 symplanes : the symmetry operation no.   4 is a mirror plane
 symaxes : the symmetry operation no.   5 is a 2-axis
 symplanes : the symmetry operation no.   6 is a mirror plane
 symaxes : the symmetry operation no.   7 is a 2-axis
 symplanes : the symmetry operation no.   8 is a mirror plane
 symplanes : the symmetry operation no.   9 is a mirror plane
 symaxes : the symmetry operation no.  10 is a 2-axis
 symspgr : the symmetry operation no.  11 is a -4 axis
 symaxes : the symmetry operation no.  12 is a 4-axis
 symplanes : the symmetry operation no.  13 is a mirror plane
 symaxes : the symmetry operation no.  14 is a 2-axis
 symspgr : the symmetry operation no.  15 is a -4 axis
 symaxes : the symmetry operation no.  16 is a 4-axis
 symaxes : the symmetry operation no.  17 is a 3-axis
 symspgr : the symmetry operation no.  18 is a -3 axis
 symaxes : the symmetry operation no.  19 is a 3-axis
 symspgr : the symmetry operation no.  20 is a -3 axis
 symaxes : the symmetry operation no.  21 is a 3-axis
 symspgr : the symmetry operation no.  22 is a -3 axis
 symaxes : the symmetry operation no.  23 is a 3-axis
 symspgr : the symmetry operation no.  24 is a -3 axis
 symplanes : the symmetry operation no.  25 is a mirror plane
 symaxes : the symmetry operation no.  26 is a 2-axis
 symspgr : the symmetry operation no.  27 is a -4 axis
 symaxes : the symmetry operation no.  28 is a 4-axis
 symspgr : the symmetry operation no.  29 is a -4 axis
 symaxes : the symmetry operation no.  30 is a 4-axis
 symplanes : the symmetry operation no.  31 is a mirror plane
 symaxes : the symmetry operation no.  32 is a 2-axis
 symaxes : the symmetry operation no.  33 is a 3-axis
 symspgr : the symmetry operation no.  34 is a -3 axis
 symaxes : the symmetry operation no.  35 is a 3-axis
 symspgr : the symmetry operation no.  36 is a -3 axis
 symaxes : the symmetry operation no.  37 is a 3-axis
 symspgr : the symmetry operation no.  38 is a -3 axis
 symaxes : the symmetry operation no.  39 is a 3-axis
 symspgr : the symmetry operation no.  40 is a -3 axis
 symplanes : the symmetry operation no.  41 is a mirror plane
 symaxes : the symmetry operation no.  42 is a 2-axis
 symplanes : the symmetry operation no.  43 is a mirror plane
 symaxes : the symmetry operation no.  44 is a 2-axis
 symspgr : the symmetry operation no.  45 is a -4 axis
 symaxes : the symmetry operation no.  46 is a 4-axis
 symspgr : the symmetry operation no.  47 is a -4 axis
 symaxes : the symmetry operation no.  48 is a 4-axis
 symspgr : the symmetry operation no.  49 is a pure translation
 symspgr : the symmetry operation no.  50 is an inversion
 symaxes : the symmetry operation no.  51 is a 2_1-axis
 symplanes : the symmetry operation no.  52 is a primary n plane
 symaxes : the symmetry operation no.  53 is a 2_1-axis
 symplanes : the symmetry operation no.  54 is a primary n plane
 symaxes : the symmetry operation no.  55 is a 2-axis
 symplanes : the symmetry operation no.  56 is a primary n plane
 symplanes : the symmetry operation no.  57 is a tertiary m plane
 symaxes : the symmetry operation no.  58 is a 2_1-axis
 symspgr : the symmetry operation no.  59 is a -4 axis
 symaxes : the symmetry operation no.  60 is a 4_2-axis
 symplanes : the symmetry operation no.  61 is a tertiary m plane
 symaxes : the symmetry operation no.  62 is a 2_1-axis
 symspgr : the symmetry operation no.  63 is a -4 axis
 symaxes : the symmetry operation no.  64 is a 4_2-axis
 symaxes : the symmetry operation no.  65 is a 3, 3_1 or 3_2 axis
 symspgr : the symmetry operation no.  66 is a -3 axis
 symaxes : the symmetry operation no.  67 is a 3-axis
 symspgr : the symmetry operation no.  68 is a -3 axis
 symaxes : the symmetry operation no.  69 is a 3, 3_1 or 3_2 axis
 symspgr : the symmetry operation no.  70 is a -3 axis
 symaxes : the symmetry operation no.  71 is a 3-axis
 symspgr : the symmetry operation no.  72 is a -3 axis
 symplanes : the symmetry operation no.  73 is a tertiary m plane
 symaxes : the symmetry operation no.  74 is a 2-axis
 symspgr : the symmetry operation no.  75 is a -4 axis
 symaxes : the symmetry operation no.  76 is a 4-axis
 symspgr : the symmetry operation no.  77 is a -4 axis
 symaxes : the symmetry operation no.  78 is a 4-axis
 symplanes : the symmetry operation no.  79 is a mirror plane
 symaxes : the symmetry operation no.  80 is a 2-axis
 symaxes : the symmetry operation no.  81 is a 3, 3_1 or 3_2 axis
 symspgr : the symmetry operation no.  82 is a -3 axis
 symaxes : the symmetry operation no.  83 is a 3, 3_1 or 3_2 axis
 symspgr : the symmetry operation no.  84 is a -3 axis
 symaxes : the symmetry operation no.  85 is a 3-axis
 symspgr : the symmetry operation no.  86 is a -3 axis
 symaxes : the symmetry operation no.  87 is a 3-axis
 symspgr : the symmetry operation no.  88 is a -3 axis
 symplanes : the symmetry operation no.  89 is a tertiary m plane
 symaxes : the symmetry operation no.  90 is a 2_1-axis
 symplanes : the symmetry operation no.  91 is a tertiary m plane
 symaxes : the symmetry operation no.  92 is a 2_1-axis
 symspgr : the symmetry operation no.  93 is a -4 axis
[...]
            ngfft          15      15      15
             nkpt11         2
             nkpt12         2
             nkpt13         2
             nkpt14         2
             nkpt21        10
             nkpt22        10
             nkpt23        10
             nkpt24        10
             nkpt31        28
             nkpt32        28
             nkpt33        28
             nkpt34        28
            nstep          10
             nsym          48
            ntime          10
           ntypat           1
              occ11    2.000000  1.333333  0.000000
                       2.000000  0.000000  0.000000
              occ12    2.000000  1.333333  0.000000
                       2.000000  0.000000  0.000000
              occ13    2.000000  1.333333  0.000000
                       2.000000  0.000000  0.000000
              occ14    2.000000  1.333331  0.000001
                       2.000000  0.000004  0.000000
              occ21    2.000000  0.000000  0.000000
                       2.000000  2.000000  0.000000
                       2.000000  0.000000  0.000000
                       2.000000  0.985601  0.000000
                       2.000000  0.000000  0.000000
                       2.000000  2.000000  0.000000
                       2.000000  0.028796  0.000000
                       2.000000  2.000000  0.000000
                       2.000000  0.000000  0.000000
                       2.000000  2.000002  0.000000
              occ22    2.000000  0.000000  0.000000
                       2.000000  2.000000  0.000000
                       2.000000  0.000000  0.000000
                       2.000000  0.844595  0.000000
                       2.000000  0.000000  0.000000
                       2.000000  2.000001  0.000000
                       2.000000  0.222602  0.000001
                       2.000000  2.034519  0.001101
                       2.000000  0.000000  0.000000
                       2.000000  2.050900  0.000000
              occ23    2.000000  0.000000  0.000000
                       2.000000  2.000002  0.000000
                       2.000000  0.000000  0.000000
                       2.000000  0.687952  0.000000
                       2.000000  0.000477  0.000000
                       2.000000  2.004439  0.000069
                       2.000000  0.278579  0.000519
                       2.000001  2.141482  0.005259
                       2.000000  0.000000  0.000000
                       2.000000  2.139572  0.000000
              occ24    2.000000  0.000000  0.000000
                       2.000000  2.001045  0.000000
                       2.000000  0.000148  0.000000
                       2.000000  0.699213  0.000000
                       2.000000  0.003893  0.000000
                       2.000001  2.047819  0.001830
                       2.000001  0.370812  0.004002
                       2.000710  2.077451  0.001106
                       2.000000  0.000000  0.000000
                       2.000000  2.040464  0.000000
              occ31    2.000000  0.000000  0.000000
                       2.000000  0.000000  0.000000
                       2.000000  0.000000  0.000000
                       2.000000  0.000000  0.000000
                       2.000000  2.000000  0.000000
                       2.000000  0.002043  0.000000
                       2.000000  2.000000  0.000000
                       2.000000  0.000000  0.000000
                       2.000000  0.000000  0.000000
                       2.000000  0.001223  0.000000
                       2.000000  1.843825  0.000000
                       2.000000  2.000000  0.000000
                       2.000000  2.006183  0.000000
                       2.000000  2.000000  0.000000
                       2.000000  0.000000  0.000000
                       2.000000  0.000000  0.000000
                       2.000000  2.123145  0.000000
                       2.000000  2.000000  0.000000
                       2.000000  0.000000  0.000000
                       2.000000  0.000000  0.000000
                       2.000000  2.001407  0.000000
                       2.000000  2.000000  0.001615
                       2.000000  2.120975  0.000000
                       2.000000  0.553285  0.000000
                       2.000000  2.000989  0.000001
                       2.000000  0.000000  0.000000
                       2.000000  0.000000  0.000000
                       2.000000  2.000000  0.000000
              occ32    2.000000  0.000000  0.000000
                       2.000000  0.000067  0.000000
                       2.000000  0.000000  0.000000
                       2.000000  0.000000  0.000000
                       2.000000  2.000000  0.000000
                       2.000000  0.202293  0.000000
                       2.000000  2.000393  0.000000
                       2.000000  0.000000  0.000000
                       2.000000  0.000000  0.000000
                       2.000000  0.000111  0.000000
                       2.000000  1.481136  0.000000
                       2.000000  2.000000  0.000000
                       2.000000  2.139211  0.000000
                       2.000000  2.000000  0.000000
                       2.000000  0.000000  0.000000
                       2.000000  0.000226  0.000000
                       2.000000  1.786432  0.000000
                       2.000000  2.000150  0.000249
                       2.000000  0.000000  0.000000
                       2.000000  0.000001  0.000000
                       2.000000  2.120348  0.000000
                       2.000000  2.016997  0.000606
                       2.000000  1.990542  0.000000
                       2.000000  0.780492  0.003135
                       2.000000  2.114784  0.005093
                       2.000000  0.000000  0.000000
                       2.000000  0.000000  0.000000
                       2.000000  2.000001  0.000000
              occ33    2.000000  0.000000  0.000000
                       2.000000  0.004025  0.000000
                       2.000000  0.000000  0.000000
                       2.000000  0.000000  0.000000
                       2.000000  2.000000  0.000000
                       2.000000  0.419998  0.000000
                       2.000000  2.028182  0.000000
                       2.000000  0.000000  0.000000
                       2.000000  0.000096  0.000000
                       2.000000  0.059896  0.000000
                       2.000000  1.355172  0.000000
                       2.000000  2.000002  0.000000
                       2.000000  2.073501  0.000000
                       2.000000  2.000113  0.000000
                       2.000000  0.000013  0.000000
                       2.000000  0.004989  0.000000
                       2.000000  1.583338  0.000006
                       2.000001  2.019259  0.005050
                       2.000000  0.000000  0.000000
                       2.000000  0.001162  0.000000
                       2.000000  2.115044  0.000105
                       2.000042  2.108347  0.070270
                       2.000000  1.771666  0.000000
                       2.000001  0.881180  0.001851
                       2.001232  2.121241  0.000098
                       2.000000  0.000000  0.000000
                       2.000000  0.000000  0.000000
                       2.000000  2.002754  0.000000
              occ34    2.000000  0.000000  0.000000
                       2.000000  0.003487  0.000000
                       2.000000  0.000000  0.000000
                       2.000000  0.000005  0.000000
                       2.000000  2.000059  0.000000
                       2.000000  0.550926  0.000000
                       2.000000  2.098974  0.000000
                       2.000000  0.000000  0.000000
                       2.000000  0.002372  0.000000
                       2.000000  0.172592  0.000006
                       2.000000  1.274711  0.000000
                       2.000000  2.000769  0.000000
                       2.000000  1.929116  0.000011
                       2.000002  2.006431  0.000000
                       2.000000  0.001016  0.000006
                       2.000000  0.001695  0.000145
                       2.000000  1.453035  0.000721
                       2.000606  2.084196  0.001511
                       2.000000  0.000000  0.000000
                       2.000000  0.005124  0.000000
                       2.000000  1.997534  0.002462
                       2.003824  2.140542  0.188953
                       2.000030  1.612124  0.000083
                       2.000429  0.917295  0.006275
                       2.022320  2.010292  0.026799
                       2.000000  0.000000  0.000000
                       2.000000  0.000038  0.000000
                       2.000000  2.033431  0.000000
           occopt           4
          optcell           1
            rprim      0.0000000000E+00  5.0000000000E-01  5.0000000000E-01
                       5.0000000000E-01  0.0000000000E+00  5.0000000000E-01
                       5.0000000000E-01  5.0000000000E-01  0.0000000000E+00
           shiftk      5.00000000E-01  5.00000000E-01  5.00000000E-01
          spgroup         225
           strten11    2.1360636847E-08  2.1360636847E-08  2.1360636848E-08
                       0.0000000000E+00  0.0000000000E+00  0.0000000000E+00
           strten12    2.2007820112E-08  2.2007820112E-08  2.2007820112E-08
                       0.0000000000E+00  0.0000000000E+00  0.0000000000E+00
           strten13    2.2007813430E-08  2.2007813430E-08  2.2007813430E-08
                       0.0000000000E+00  0.0000000000E+00  0.0000000000E+00
           strten14    2.2010143385E-08  2.2010143385E-08  2.2010143385E-08
                       0.0000000000E+00  0.0000000000E+00  0.0000000000E+00
           strten21    2.1746411592E-09  2.1746411591E-09  2.1746411592E-09
                       0.0000000000E+00  0.0000000000E+00  0.0000000000E+00
           strten22    1.8662923459E-09  1.8662923461E-09  1.8662923461E-09
                       0.0000000000E+00  0.0000000000E+00  0.0000000000E+00
           strten23    2.5924256607E-09  2.5924256605E-09  2.5924256606E-09
                       0.0000000000E+00  0.0000000000E+00  0.0000000000E+00
           strten24    1.8571528041E-09  1.8571528042E-09  1.8571528041E-09
                       0.0000000000E+00  0.0000000000E+00  0.0000000000E+00
           strten31    2.7307507643E-07  2.7307507643E-07  2.7307507643E-07
                       0.0000000000E+00  0.0000000000E+00  0.0000000000E+00
           strten32    2.8566278768E-07  2.8566278768E-07  2.8566278768E-07
                       0.0000000000E+00  0.0000000000E+00  0.0000000000E+00
           strten33    2.4631778821E-07  2.4631778821E-07  2.4631778821E-07
                       0.0000000000E+00  0.0000000000E+00  0.0000000000E+00
           strten34    1.6850417037E-07  1.6850417037E-07  1.6850417037E-07
                       0.0000000000E+00  0.0000000000E+00  0.0000000000E+00
           symrel      1  0  0   0  1  0   0  0  1      -1  0  0   0 -1  0   0  0 -1
                       0 -1  1   0 -1  0   1 -1  0       0  1 -1   0  1  0  -1  1  0
                      -1  0  0  -1  0  1  -1  1  0       1  0  0   1  0 -1   1 -1  0
                       0  1 -1   1  0 -1   0  0 -1       0 -1  1  -1  0  1   0  0  1
                      -1  0  0  -1  1  0  -1  0  1       1  0  0   1 -1  0   1  0 -1
                       0 -1  1   1 -1  0   0 -1  0       0  1 -1  -1  1  0   0  1  0
                       1  0  0   0  0  1   0  1  0      -1  0  0   0  0 -1   0 -1  0
                       0  1 -1   0  0 -1   1  0 -1       0 -1  1   0  0  1  -1  0  1
                      -1  0  1  -1  1  0  -1  0  0       1  0 -1   1 -1  0   1  0  0
                       0 -1  0   1 -1  0   0 -1  1       0  1  0  -1  1  0   0  1 -1
                       1  0 -1   0  0 -1   0  1 -1      -1  0  1   0  0  1   0 -1  1
                       0  1  0   0  0  1   1  0  0       0 -1  0   0  0 -1  -1  0  0
                       1  0 -1   0  1 -1   0  0 -1      -1  0  1   0 -1  1   0  0  1
                       0 -1  0   0 -1  1   1 -1  0       0  1  0   0  1 -1  -1  1  0
                      -1  0  1  -1  0  0  -1  1  0       1  0 -1   1  0  0   1 -1  0
                       0  1  0   1  0  0   0  0  1       0 -1  0  -1  0  0   0  0 -1
                       0  0 -1   0  1 -1   1  0 -1       0  0  1   0 -1  1  -1  0  1
                       1 -1  0   0 -1  1   0 -1  0      -1  1  0   0  1 -1   0  1  0
                       0  0  1   1  0  0   0  1  0       0  0 -1  -1  0  0   0 -1  0
                      -1  1  0  -1  0  0  -1  0  1       1 -1  0   1  0  0   1  0 -1
                       0  0  1   0  1  0   1  0  0       0  0 -1   0 -1  0  -1  0  0
                       1 -1  0   0 -1  0   0 -1  1      -1  1  0   0  1  0   0  1 -1
                       0  0 -1   1  0 -1   0  1 -1       0  0  1  -1  0  1   0 -1  1
                      -1  1  0  -1  0  1  -1  0  0       1 -1  0   1  0 -1   1  0  0
           toldfe      1.00000000E-06 Hartree
           tsmear11    1.00000000E-02 Hartree
           tsmear12    2.00000000E-02 Hartree
           tsmear13    3.00000000E-02 Hartree
           tsmear14    4.00000000E-02 Hartree
           tsmear21    1.00000000E-02 Hartree
           tsmear22    2.00000000E-02 Hartree
           tsmear23    3.00000000E-02 Hartree
           tsmear24    4.00000000E-02 Hartree
           tsmear31    1.00000000E-02 Hartree
           tsmear32    2.00000000E-02 Hartree
           tsmear33    3.00000000E-02 Hartree
           tsmear34    4.00000000E-02 Hartree
            typat      1
              wtk11      0.75000    0.25000
              wtk12      0.75000    0.25000
              wtk13      0.75000    0.25000
              wtk14      0.75000    0.25000
              wtk21      0.09375    0.09375    0.09375    0.18750    0.09375    0.09375
                         0.09375    0.18750    0.03125    0.03125
              wtk22      0.09375    0.09375    0.09375    0.18750    0.09375    0.09375
                         0.09375    0.18750    0.03125    0.03125
              wtk23      0.09375    0.09375    0.09375    0.18750    0.09375    0.09375
                         0.09375    0.18750    0.03125    0.03125
              wtk24      0.09375    0.09375    0.09375    0.18750    0.09375    0.09375
                         0.09375    0.18750    0.03125    0.03125
              wtk31      0.02778    0.02778    0.02778    0.05556    0.02778    0.02778
                         0.05556    0.02778    0.05556    0.05556    0.02778    0.02778
                         0.02778    0.05556    0.02778    0.05556    0.05556    0.05556
                         0.02778    0.02778    0.02778    0.02778    0.02778    0.05556
                         0.05556    0.00926    0.00926    0.00926
              wtk32      0.02778    0.02778    0.02778    0.05556    0.02778    0.02778
                         0.05556    0.02778    0.05556    0.05556    0.02778    0.02778
                         0.02778    0.05556    0.02778    0.05556    0.05556    0.05556
                         0.02778    0.02778    0.02778    0.02778    0.02778    0.05556
                         0.05556    0.00926    0.00926    0.00926
              wtk33      0.02778    0.02778    0.02778    0.05556    0.02778    0.02778
                         0.05556    0.02778    0.05556    0.05556    0.02778    0.02778
                         0.02778    0.05556    0.02778    0.05556    0.05556    0.05556
                         0.02778    0.02778    0.02778    0.02778    0.02778    0.05556
                         0.05556    0.00926    0.00926    0.00926
              wtk34      0.02778    0.02778    0.02778    0.05556    0.02778    0.02778
                         0.05556    0.02778    0.05556    0.05556    0.02778    0.02778
                         0.02778    0.05556    0.02778    0.05556    0.05556    0.05556
                         0.02778    0.02778    0.02778    0.02778    0.02778    0.05556
                         0.05556    0.00926    0.00926    0.00926
            znucl       13.00000

================================================================================
  

================================================================================

 Suggested references for the acknowledgment of ABINIT usage.

 The users of ABINIT have little formal obligations with respect to the ABINIT group
 (those specified in the GNU General Public License, http://www.gnu.org/copyleft/gpl.txt).
 However, it is common practice in the scientific literature,
 to acknowledge the efforts of people that have made the research possible.
 In this spirit, please find below suggested citations of work written by ABINIT developers,
 corresponding to implementations inside of ABINIT that you have used in the present run.
 Note also that it will be of great value to readers of publications presenting these results,
 to read papers enabling them to understand the theoretical formalism and details
 of the ABINIT implementation.
 For information on why they are suggested, see also http://www.abinit.org/about/?text=acknowledgments.

 [1] Ab initio pseudopotentials for electronic structure calculations of poly-atomic systems, 
 using density-functional theory.
 M. Fuchs, M. Scheffler, Comput. Phys. Commun. 119, 67 (1999).
 Comment : Some pseudopotential generated using the FHI code were used.

 [2] ABINIT : First-principles approach of materials and nanosystem properties.
 X. Gonze, B. Amadon, P.-M. Anglade, J.-M. Beuken, F. Bottin, P. Boulanger, F. Bruneval,
 D. Caliste, R. Caracas, M. Cote, T. Deutsch, L. Genovese, Ph. Ghosez, M. Giantomassi
 S. Goedecker, D.R. Hamann, P. Hermet, F. Jollet, G. Jomard, S. Leroux, M. Mancini, S. Mazevet,
 M.J.T. Oliveira, G. Onida, Y. Pouillon, T. Rangel, G.-M. Rignanese, D. Sangalli, R. Shaltaf,
 M. Torrent, M.J. Verstraete, G. Zerah, J.W. Zwanziger
 Computer Phys. Comm. 180, 2582-2615 (2009).
 Comment : the third generic paper describing the ABINIT project.
 Note that a version of this paper, that is not formatted for Computer Phys. Comm. 
 is available at http://www.abinit.org/about/ABINIT_CPC_v10.pdf .
 The licence allows the authors to put it on the Web.

 [3] A brief introduction to the ABINIT software package.
 X. Gonze, G.-M. Rignanese, M. Verstraete, J.-M. Beuken, Y. Pouillon, R. Caracas, F. Jollet,
 M. Torrent, G. Zerah, M. Mikami, Ph. Ghosez, M. Veithen, J.-Y. Raty, V. Olevano, F. Bruneval,
 L. Reining, R. Godby, G. Onida, D.R. Hamann, and D.C. Allan.
 Z. Kristallogr. 220, 558-562 (2005).
 Comment : the second generic paper describing the ABINIT project. Note that this paper
 should be cited especially if you are using the GW part of ABINIT, as several authors
 of this part are not in the list of authors of the first or third paper.
 The .pdf of the latter paper is available at http://www.abinit.org/about/zfk_0505-06_558-562.pdf.
 Note that it should not redistributed (Copyright by Oldenburg Wissenshaftverlag,
 the licence allows the authors to put it on the Web).


 And optionally :

 [4] First-principles computation of material properties : the ABINIT software project. 
 X. Gonze, J.-M. Beuken, R. Caracas, F. Detraux, M. Fuchs, G.-M. Rignanese, L. Sindic,
 M. Verstraete, G. Zerah, F. Jollet, M. Torrent, A. Roy, M. Mikami, Ph. Ghosez, J.-Y. Raty, D.C. Allan.
 Computational Materials Science 25, 478-492 (2002). http://dx.doi.org/10.1016/S0927-0256(02)00325-7
 Comment : the original paper describing the ABINIT project.

 [5] Fast radix 2, 3, 4 and 5 kernels for Fast Fourier Transformations
 on computers with overlapping multiply-add instructions.
 S. Goedecker, SIAM J. on Scientific Computing 18, 1605 (1997).
 Proc.   0 individual time (sec): cpu=         19.7  wall=         24.0

 Calculation completed.
.Delivered   51 WARNINGs and  88 COMMENTs to log file.
