
.Version 7.4.3 of ABINIT 
.(MPI version, prepared for a i686_cygwin_gnu4.7 computer) 

.Copyright (C) 1998-2013 ABINIT group . 
 ABINIT comes with ABSOLUTELY NO WARRANTY.
 It is free software, and you are welcome to redistribute it
 under certain conditions (GNU General Public License,
 see ~abinit/COPYING or http://www.gnu.org/copyleft/gpl.txt).

 ABINIT is a project of the Universite Catholique de Louvain,
 Corning Inc. and other collaborators, see ~abinit/doc/developers/contributors.txt .
 Please read ~abinit/doc/users/acknowledgments.html for suggested
 acknowledgments of the ABINIT effort.
 For more information, see http://www.abinit.org .

.Starting date : Mon  4 Jun 2018.
- ( at 12h48 )
  

 herald :  WARNING -
  The starting date is more than 3 years after the initial release
  of this version of ABINIT, namely Aug 2013.
  This version of ABINIT is not supported anymore.
  Action : please, switch to a more recent version of ABINIT.
- input  file    -> tbase3_4.in
- output file    -> tbase3_4.out
- root for input  files -> tbase3_xi
- root for output files -> tbase3_xo


 DATASET    1 : space group Fd -3 m (#227); Bravais cF (face-center cubic)
================================================================================
 Values of the parameters that define the memory need for DATASET  1.
   intxc =         0  ionmov =         2    iscf =         7 xclevel =         1
  lmnmax =         2   lnmax =         2   mband =         5  mffmem =         1
P  mgfft =        20   mkmem =         2 mpssoang=         3     mpw =       331
  mqgrid =      3001   natom =         2    nfft =      8000    nkpt =         2
  nloalg =         4  nspden =         1 nspinor =         1  nsppol =         1
    nsym =        48  n1xccc =      2501  ntypat =         1  occopt =         1
================================================================================
P This job should need less than                       2.926 Mbytes of memory.
  Rough estimation (10% accuracy) of disk space for files :
_ WF disk file :      0.053 Mbytes ; DEN or POT disk file :      0.063 Mbytes.
================================================================================


 DATASET    2 : space group Fd -3 m (#227); Bravais cF (face-center cubic)
================================================================================
 Values of the parameters that define the memory need for DATASET  2.
   intxc =         0  ionmov =         2    iscf =         7 xclevel =         1
  lmnmax =         2   lnmax =         2   mband =         5  mffmem =         1
P  mgfft =        20   mkmem =        10 mpssoang=         3     mpw =       338
  mqgrid =      3001   natom =         2    nfft =      8000    nkpt =        10
  nloalg =         4  nspden =         1 nspinor =         1  nsppol =         1
    nsym =        48  n1xccc =      2501  ntypat =         1  occopt =         1
================================================================================
P This job should need less than                       3.173 Mbytes of memory.
  Rough estimation (10% accuracy) of disk space for files :
_ WF disk file :      0.260 Mbytes ; DEN or POT disk file :      0.063 Mbytes.
================================================================================

--------------------------------------------------------------------------------
------------- Echo of variables that govern the present computation ------------
--------------------------------------------------------------------------------
-
- outvars: echo of selected default values                                      
-   accesswff0 =  0 , fftalg0 =112 , wfoptalg0 =  0
-
- outvars: echo of global parameters not present in the input file              
-  max_nthreads =    0
-
 -outvars: echo values of preprocessed input variables --------
            acell      1.0180000000E+01  1.0180000000E+01  1.0180000000E+01 Bohr
              amu      2.80855000E+01
           diemac      1.20000000E+01
          dilatmx      1.05000000E+00
             ecut      8.00000000E+00 Hartree
           ecutsm      5.00000000E-01 Hartree
           getwfk          -1
           ionmov           2
           jdtset        1    2
              kpt1    -2.50000000E-01  5.00000000E-01  0.00000000E+00
                      -2.50000000E-01  0.00000000E+00  0.00000000E+00
              kpt2    -1.25000000E-01 -2.50000000E-01  0.00000000E+00
                      -1.25000000E-01  5.00000000E-01  0.00000000E+00
                      -2.50000000E-01 -3.75000000E-01  0.00000000E+00
                      -1.25000000E-01 -3.75000000E-01  1.25000000E-01
                      -1.25000000E-01  2.50000000E-01  0.00000000E+00
                      -2.50000000E-01  3.75000000E-01  0.00000000E+00
                      -3.75000000E-01  5.00000000E-01  0.00000000E+00
                      -2.50000000E-01  5.00000000E-01  1.25000000E-01
                      -1.25000000E-01  0.00000000E+00  0.00000000E+00
                      -3.75000000E-01  0.00000000E+00  0.00000000E+00
         kptrlatt1       2   -2    2     -2    2    2     -2   -2    2
         kptrlatt2       4   -4    4     -4    4    4     -4   -4    4
          kptrlen1     2.03600000E+01
          kptrlen2     4.07200000E+01
P           mkmem1          2
P           mkmem2         10
            natom           2
            nband1          5
            nband2          5
           ndtset           2
            ngfft          20      20      20
             nkpt1          2
             nkpt2         10
            nstep          10
             nsym          48
            ntime          10
           ntypat           1
              occ1     2.000000  2.000000  2.000000  2.000000  0.000000
              occ2     2.000000  2.000000  2.000000  2.000000  0.000000
          optcell           1
            rprim      0.0000000000E+00  5.0000000000E-01  5.0000000000E-01
                       5.0000000000E-01  0.0000000000E+00  5.0000000000E-01
                       5.0000000000E-01  5.0000000000E-01  0.0000000000E+00
           shiftk      5.00000000E-01  5.00000000E-01  5.00000000E-01
          spgroup         227
           symrel      1  0  0   0  1  0   0  0  1      -1  0  0   0 -1  0   0  0 -1
                       0 -1  1   0 -1  0   1 -1  0       0  1 -1   0  1  0  -1  1  0
                      -1  0  0  -1  0  1  -1  1  0       1  0  0   1  0 -1   1 -1  0
                       0  1 -1   1  0 -1   0  0 -1       0 -1  1  -1  0  1   0  0  1
                      -1  0  0  -1  1  0  -1  0  1       1  0  0   1 -1  0   1  0 -1
                       0 -1  1   1 -1  0   0 -1  0       0  1 -1  -1  1  0   0  1  0
                       1  0  0   0  0  1   0  1  0      -1  0  0   0  0 -1   0 -1  0
                       0  1 -1   0  0 -1   1  0 -1       0 -1  1   0  0  1  -1  0  1
                      -1  0  1  -1  1  0  -1  0  0       1  0 -1   1 -1  0   1  0  0
                       0 -1  0   1 -1  0   0 -1  1       0  1  0  -1  1  0   0  1 -1
                       1  0 -1   0  0 -1   0  1 -1      -1  0  1   0  0  1   0 -1  1
                       0  1  0   0  0  1   1  0  0       0 -1  0   0  0 -1  -1  0  0
                       1  0 -1   0  1 -1   0  0 -1      -1  0  1   0 -1  1   0  0  1
                       0 -1  0   0 -1  1   1 -1  0       0  1  0   0  1 -1  -1  1  0
                      -1  0  1  -1  0  0  -1  1  0       1  0 -1   1  0  0   1 -1  0
                       0  1  0   1  0  0   0  0  1       0 -1  0  -1  0  0   0  0 -1
                       0  0 -1   0  1 -1   1  0 -1       0  0  1   0 -1  1  -1  0  1
                       1 -1  0   0 -1  1   0 -1  0      -1  1  0   0  1 -1   0  1  0
                       0  0  1   1  0  0   0  1  0       0  0 -1  -1  0  0   0 -1  0
                      -1  1  0  -1  0  0  -1  0  1       1 -1  0   1  0  0   1  0 -1
                       0  0  1   0  1  0   1  0  0       0  0 -1   0 -1  0  -1  0  0
                       1 -1  0   0 -1  0   0 -1  1      -1  1  0   0  1  0   0  1 -1
                       0  0 -1   1  0 -1   0  1 -1       0  0  1  -1  0  1   0 -1  1
                      -1  1  0  -1  0  1  -1  0  0       1 -1  0   1  0 -1   1  0  0
            tnons      0.0000000  0.0000000  0.0000000     0.2500000  0.2500000  0.2500000
                       0.0000000  0.0000000  0.0000000     0.2500000  0.2500000  0.2500000
                       0.0000000  0.0000000  0.0000000     0.2500000  0.2500000  0.2500000
                       0.0000000  0.0000000  0.0000000     0.2500000  0.2500000  0.2500000
                       0.0000000  0.0000000  0.0000000     0.2500000  0.2500000  0.2500000
                       0.0000000  0.0000000  0.0000000     0.2500000  0.2500000  0.2500000
                       0.0000000  0.0000000  0.0000000     0.2500000  0.2500000  0.2500000
                       0.0000000  0.0000000  0.0000000     0.2500000  0.2500000  0.2500000
                       0.0000000  0.0000000  0.0000000     0.2500000  0.2500000  0.2500000
                       0.0000000  0.0000000  0.0000000     0.2500000  0.2500000  0.2500000
                       0.0000000  0.0000000  0.0000000     0.2500000  0.2500000  0.2500000
                       0.0000000  0.0000000  0.0000000     0.2500000  0.2500000  0.2500000
                       0.0000000  0.0000000  0.0000000     0.2500000  0.2500000  0.2500000
                       0.0000000  0.0000000  0.0000000     0.2500000  0.2500000  0.2500000
                       0.0000000  0.0000000  0.0000000     0.2500000  0.2500000  0.2500000
                       0.0000000  0.0000000  0.0000000     0.2500000  0.2500000  0.2500000
                       0.0000000  0.0000000  0.0000000     0.2500000  0.2500000  0.2500000
                       0.0000000  0.0000000  0.0000000     0.2500000  0.2500000  0.2500000
                       0.0000000  0.0000000  0.0000000     0.2500000  0.2500000  0.2500000
                       0.0000000  0.0000000  0.0000000     0.2500000  0.2500000  0.2500000
                       0.0000000  0.0000000  0.0000000     0.2500000  0.2500000  0.2500000
                       0.0000000  0.0000000  0.0000000     0.2500000  0.2500000  0.2500000
                       0.0000000  0.0000000  0.0000000     0.2500000  0.2500000  0.2500000
                       0.0000000  0.0000000  0.0000000     0.2500000  0.2500000  0.2500000
           toldfe      1.00000000E-06 Hartree
            typat      1  1
              wtk1       0.75000    0.25000
              wtk2       0.09375    0.09375    0.09375    0.18750    0.09375    0.09375
                         0.09375    0.18750    0.03125    0.03125
           xangst      0.0000000000E+00  0.0000000000E+00  0.0000000000E+00
                       1.3467559959E+00  1.3467559959E+00  1.3467559959E+00
            xcart      0.0000000000E+00  0.0000000000E+00  0.0000000000E+00
                       2.5450000000E+00  2.5450000000E+00  2.5450000000E+00
             xred      0.0000000000E+00  0.0000000000E+00  0.0000000000E+00
                       2.5000000000E-01  2.5000000000E-01  2.5000000000E-01
            znucl       14.00000

================================================================================

 chkinp: Checking input parameters for consistency, jdtset=   1.

 chkinp: Checking input parameters for consistency, jdtset=   2.

================================================================================
== DATASET  1 ==================================================================
-   nproc =    1

 Exchange-correlation functional for the present dataset will be:
  LDA: new Teter (4/93) with spin-polarized option - ixc=1
 Citation for XC functional:
  S. Goedecker, M. Teter, J. Huetter, PRB 54, 1703 (1996)

 Real(R)+Recip(G) space primitive vectors, cartesian coordinates (Bohr,Bohr^-1):
 R(1)=  0.0000000  5.0900000  5.0900000  G(1)= -0.0982318  0.0982318  0.0982318
 R(2)=  5.0900000  0.0000000  5.0900000  G(2)=  0.0982318 -0.0982318  0.0982318
 R(3)=  5.0900000  5.0900000  0.0000000  G(3)=  0.0982318  0.0982318 -0.0982318
 Unit cell volume ucvol=  2.6374446E+02 bohr^3
 Angles (23,13,12)=  6.00000000E+01  6.00000000E+01  6.00000000E+01 degrees

 getcut: wavevector=  0.0000  0.0000  0.0000  ngfft=  20  20  20
         ecut(hartree)=      8.820   => boxcut(ratio)=   2.07825

--- Pseudopotential description ------------------------------------------------
- pspini: atom type   1  psp file is 14si.pspnc
- pspatm: opening atomic psp file    14si.pspnc
-  Troullier-Martins psp for element  Si        Thu Oct 27 17:31:21 EDT 1994
- 14.00000   4.00000    940714                znucl, zion, pspdat
    1    1    2    2      2001   0.00000      pspcod,pspxc,lmax,lloc,mmax,r2well
    0   5.907  14.692    1   2.0872718        l,e99.0,e99.9,nproj,rcpsp
   0.00000000   0.00000000   0.00000000   0.00000000     rms, ekb1, ekb2, epsatm
    1   2.617   4.181    1   2.0872718        l,e99.0,e99.9,nproj,rcpsp
   0.00000000   0.00000000   0.00000000   0.00000000     rms, ekb1, ekb2, epsatm
    2   0.000   0.000    0   2.0872718        l,e99.0,e99.9,nproj,rcpsp
   0.00000000   0.00000000   0.00000000   0.00000000     rms, ekb1, ekb2, epsatm
    1.80626423934776    0.22824404341771    1.17378968127746   rchrg,fchrg,qchrg
 pspatm: epsatm=    1.43386982
         --- l  ekb(1:nproj) -->
             0    3.287949
             1    1.849886
 pspatm: atomic psp has been read  and splines computed

   2.29419171E+01                                ecore*ucvol(ha*bohr**3)
--------------------------------------------------------------------------------

P newkpt: treating      5 bands with npw=     331 for ikpt=   1 by node    0
P newkpt: treating      5 bands with npw=     326 for ikpt=   2 by node    0

_setup2: Arith. and geom. avg. npw (full set) are     329.750     329.743

================================================================================

=== [ionmov= 2] Broyden-Fletcher-Goldfard-Shanno method (forces)            
================================================================================

--- Iteration: ( 1/10) Internal Cycle: (1/1)
--------------------------------------------------------------------------------

---SELF-CONSISTENT-FIELD CONVERGENCE--------------------------------------------

     iter   Etot(hartree)      deltaE(h)  residm     vres2
 ETOT  1  -8.8599360124230    -8.860E+00 1.099E-02 6.323E+00
 ETOT  2  -8.8658003939163    -5.864E-03 3.192E-07 1.648E-01
 ETOT  3  -8.8658786034834    -7.821E-05 1.019E-06 3.165E-03
 ETOT  4  -8.8658795593091    -9.558E-07 1.441E-08 1.310E-05
 ETOT  5  -8.8658795647858    -5.477E-09 1.346E-10 1.494E-08

 At SCF step    5, etot is converged : 
  for the second time, diff in etot=  5.477E-09 < toldfe=  1.000E-06

 Cartesian components of stress tensor (hartree/bohr^3)
  sigma(1 1)= -5.03560956E-05  sigma(3 2)=  0.00000000E+00
  sigma(2 2)= -5.03560956E-05  sigma(3 1)=  0.00000000E+00
  sigma(3 3)= -5.03560956E-05  sigma(2 1)=  0.00000000E+00


---OUTPUT-----------------------------------------------------------------------

 Cartesian coordinates (xcart) [bohr]
  0.00000000000000E+00  0.00000000000000E+00  0.00000000000000E+00
  2.54500000000000E+00  2.54500000000000E+00  2.54500000000000E+00
 Reduced coordinates (xred)
  0.00000000000000E+00  0.00000000000000E+00  0.00000000000000E+00
  2.50000000000000E-01  2.50000000000000E-01  2.50000000000000E-01
 Cartesian forces (fcart) [Ha/bohr]; max,rms= 0.00000E+00 0.00000E+00 (free atoms)
 -0.00000000000000E+00 -0.00000000000000E+00 -0.00000000000000E+00
 -0.00000000000000E+00 -0.00000000000000E+00 -0.00000000000000E+00
 Reduced forces (fred)
  0.00000000000000E+00  0.00000000000000E+00  0.00000000000000E+00
  0.00000000000000E+00  0.00000000000000E+00  0.00000000000000E+00
 Scale of Primitive Cell (acell) [bohr]
  1.01800000000000E+01  1.01800000000000E+01  1.01800000000000E+01
 Real space primitive translations (rprimd) [bohr]
  0.00000000000000E+00  5.09000000000000E+00  5.09000000000000E+00
  5.09000000000000E+00  0.00000000000000E+00  5.09000000000000E+00
  5.09000000000000E+00  5.09000000000000E+00  0.00000000000000E+00
 Unitary Cell Volume (ucvol) [Bohr^3]=  2.63744458000000E+02
 Angles (23,13,12)= [degrees]
  6.00000000000000E+01  6.00000000000000E+01  6.00000000000000E+01
 Lengths [Bohr]
  7.19834703247905E+00  7.19834703247905E+00  7.19834703247905E+00
 Stress tensor in cartesian coordinates (strten) [Ha/bohr^3]
 -5.03560955732783E-05  0.00000000000000E+00  0.00000000000000E+00
  0.00000000000000E+00 -5.03560955732783E-05  0.00000000000000E+00
  0.00000000000000E+00  0.00000000000000E+00 -5.03560955732784E-05
 Total energy (etotal) [Ha]= -8.86587956478581E+00

--- Iteration: ( 2/10) Internal Cycle: (1/1)
--------------------------------------------------------------------------------

---SELF-CONSISTENT-FIELD CONVERGENCE--------------------------------------------

     iter   Etot(hartree)      deltaE(h)  residm     vres2
 ETOT  1  -8.8659281292222    -8.866E+00 1.727E-11 3.491E-03
 ETOT  2  -8.8659304750415    -2.346E-06 1.963E-12 1.131E-04
 ETOT  3  -8.8659305250210    -4.998E-08 8.023E-10 1.684E-06
 ETOT  4  -8.8659305255275    -5.065E-10 8.420E-12 1.864E-09

 At SCF step    4, etot is converged : 
  for the second time, diff in etot=  5.065E-10 < toldfe=  1.000E-06

 Cartesian components of stress tensor (hartree/bohr^3)
  sigma(1 1)= -3.47668822E-05  sigma(3 2)=  0.00000000E+00
  sigma(2 2)= -3.47668822E-05  sigma(3 1)=  0.00000000E+00
  sigma(3 3)= -3.47668822E-05  sigma(2 1)=  0.00000000E+00


---OUTPUT-----------------------------------------------------------------------

 Cartesian coordinates (xcart) [bohr]
  0.00000000000000E+00  0.00000000000000E+00  0.00000000000000E+00
  2.54884468789702E+00  2.54884468789702E+00  2.54884468789702E+00
 Reduced coordinates (xred)
  0.00000000000000E+00  0.00000000000000E+00  0.00000000000000E+00
  2.50000000000000E-01  2.50000000000000E-01  2.50000000000000E-01
 Cartesian forces (fcart) [Ha/bohr]; max,rms= 0.00000E+00 0.00000E+00 (free atoms)
 -0.00000000000000E+00 -0.00000000000000E+00 -0.00000000000000E+00
 -0.00000000000000E+00 -0.00000000000000E+00 -0.00000000000000E+00
 Reduced forces (fred)
  0.00000000000000E+00  0.00000000000000E+00  0.00000000000000E+00
  0.00000000000000E+00  0.00000000000000E+00  0.00000000000000E+00
 Scale of Primitive Cell (acell) [bohr]
  1.01953787515881E+01  1.01953787515881E+01  1.01953787515881E+01
 Real space primitive translations (rprimd) [bohr]
  0.00000000000000E+00  5.09768937579404E+00  5.09768937579404E+00
  5.09768937579404E+00  0.00000000000000E+00  5.09768937579404E+00
  5.09768937579404E+00  5.09768937579404E+00  0.00000000000000E+00
 Unitary Cell Volume (ucvol) [Bohr^3]=  2.64941567334662E+02
 Angles (23,13,12)= [degrees]
  6.00000000000000E+01  6.00000000000000E+01  6.00000000000000E+01
 Lengths [Bohr]
  7.20922145201317E+00  7.20922145201317E+00  7.20922145201317E+00
 Stress tensor in cartesian coordinates (strten) [Ha/bohr^3]
 -3.47668821781309E-05  0.00000000000000E+00  0.00000000000000E+00
  0.00000000000000E+00 -3.47668821781309E-05  0.00000000000000E+00
  0.00000000000000E+00  0.00000000000000E+00 -3.47668821781310E-05
 Total energy (etotal) [Ha]= -8.86593052552753E+00

 Difference of energy with previous step (new-old):
           Absolute (Ha)=-5.09607E-05
           Relative     =-5.74795E-06

--- Iteration: ( 3/10) Internal Cycle: (1/1)
--------------------------------------------------------------------------------

---SELF-CONSISTENT-FIELD CONVERGENCE--------------------------------------------

     iter   Etot(hartree)      deltaE(h)  residm     vres2
 ETOT  1  -8.8659681828270    -8.866E+00 2.208E-10 1.798E-02
 ETOT  2  -8.8659803049997    -1.212E-05 1.013E-11 5.967E-04
 ETOT  3  -8.8659805703553    -2.654E-07 4.210E-09 8.893E-06
 ETOT  4  -8.8659805730316    -2.676E-09 4.407E-11 9.845E-09

 At SCF step    4, etot is converged : 
  for the second time, diff in etot=  2.676E-09 < toldfe=  1.000E-06

 Cartesian components of stress tensor (hartree/bohr^3)
  sigma(1 1)= -2.71735367E-06  sigma(3 2)=  0.00000000E+00
  sigma(2 2)= -2.71735367E-06  sigma(3 1)=  0.00000000E+00
  sigma(3 3)= -2.71735367E-06  sigma(2 1)=  0.00000000E+00


---OUTPUT-----------------------------------------------------------------------

 Cartesian coordinates (xcart) [bohr]
  0.00000000000000E+00  0.00000000000000E+00  0.00000000000000E+00
  2.55754606485303E+00  2.55754606485303E+00  2.55754606485303E+00
 Reduced coordinates (xred)
  0.00000000000000E+00  0.00000000000000E+00  0.00000000000000E+00
  2.50000000000000E-01  2.50000000000000E-01  2.50000000000000E-01
 Cartesian forces (fcart) [Ha/bohr]; max,rms= 0.00000E+00 0.00000E+00 (free atoms)
 -0.00000000000000E+00 -0.00000000000000E+00 -0.00000000000000E+00
 -0.00000000000000E+00 -0.00000000000000E+00 -0.00000000000000E+00
 Reduced forces (fred)
  0.00000000000000E+00  0.00000000000000E+00  0.00000000000000E+00
  0.00000000000000E+00  0.00000000000000E+00  0.00000000000000E+00
 Scale of Primitive Cell (acell) [bohr]
  1.02301842594121E+01  1.02301842594121E+01  1.02301842594121E+01
 Real space primitive translations (rprimd) [bohr]
  0.00000000000000E+00  5.11509212970607E+00  5.11509212970607E+00
  5.11509212970607E+00  0.00000000000000E+00  5.11509212970607E+00
  5.11509212970607E+00  5.11509212970607E+00  0.00000000000000E+00
 Unitary Cell Volume (ucvol) [Bohr^3]=  2.67664254471869E+02
 Angles (23,13,12)= [degrees]
  6.00000000000000E+01  6.00000000000000E+01  6.00000000000000E+01
 Lengths [Bohr]
  7.23383266261820E+00  7.23383266261820E+00  7.23383266261820E+00
 Stress tensor in cartesian coordinates (strten) [Ha/bohr^3]
 -2.71735367403852E-06  0.00000000000000E+00  0.00000000000000E+00
  0.00000000000000E+00 -2.71735367403869E-06  0.00000000000000E+00
  0.00000000000000E+00  0.00000000000000E+00 -2.71735367403863E-06
 Total energy (etotal) [Ha]= -8.86598057303158E+00

 Difference of energy with previous step (new-old):
           Absolute (Ha)=-5.00475E-05
           Relative     =-5.64491E-06

--- Iteration: ( 4/10) Internal Cycle: (1/1)
--------------------------------------------------------------------------------

---SELF-CONSISTENT-FIELD CONVERGENCE--------------------------------------------

     iter   Etot(hartree)      deltaE(h)  residm     vres2
 ETOT  1  -8.8659808025597    -8.866E+00 2.423E-12 1.315E-04
 ETOT  2  -8.8659808910819    -8.852E-08 7.453E-14 4.392E-06
 ETOT  3  -8.8659808930381    -1.956E-09 3.110E-11 6.490E-08

 At SCF step    3, etot is converged : 
  for the second time, diff in etot=  1.956E-09 < toldfe=  1.000E-06

 Cartesian components of stress tensor (hartree/bohr^3)
  sigma(1 1)=  7.36722251E-09  sigma(3 2)=  0.00000000E+00
  sigma(2 2)=  7.36722251E-09  sigma(3 1)=  0.00000000E+00
  sigma(3 3)=  7.36722251E-09  sigma(2 1)=  0.00000000E+00


---OUTPUT-----------------------------------------------------------------------

 Cartesian coordinates (xcart) [bohr]
  0.00000000000000E+00  0.00000000000000E+00  0.00000000000000E+00
  2.55829205201036E+00  2.55829205201036E+00  2.55829205201036E+00
 Reduced coordinates (xred)
  0.00000000000000E+00  0.00000000000000E+00  0.00000000000000E+00
  2.50000000000000E-01  2.50000000000000E-01  2.50000000000000E-01
 Cartesian forces (fcart) [Ha/bohr]; max,rms= 0.00000E+00 0.00000E+00 (free atoms)
 -0.00000000000000E+00 -0.00000000000000E+00 -0.00000000000000E+00
 -0.00000000000000E+00 -0.00000000000000E+00 -0.00000000000000E+00
 Reduced forces (fred)
  0.00000000000000E+00  0.00000000000000E+00  0.00000000000000E+00
  0.00000000000000E+00  0.00000000000000E+00  0.00000000000000E+00
 Scale of Primitive Cell (acell) [bohr]
  1.02331682080415E+01  1.02331682080415E+01  1.02331682080415E+01
 Real space primitive translations (rprimd) [bohr]
  0.00000000000000E+00  5.11658410402073E+00  5.11658410402073E+00
  5.11658410402073E+00  0.00000000000000E+00  5.11658410402073E+00
  5.11658410402073E+00  5.11658410402073E+00  0.00000000000000E+00
 Unitary Cell Volume (ucvol) [Bohr^3]=  2.67898540390499E+02
 Angles (23,13,12)= [degrees]
  6.00000000000000E+01  6.00000000000000E+01  6.00000000000000E+01
 Lengths [Bohr]
  7.23594263292870E+00  7.23594263292870E+00  7.23594263292870E+00
 Stress tensor in cartesian coordinates (strten) [Ha/bohr^3]
  7.36722250842562E-09  0.00000000000000E+00  0.00000000000000E+00
  0.00000000000000E+00  7.36722250837141E-09  0.00000000000000E+00
  0.00000000000000E+00  0.00000000000000E+00  7.36722250842562E-09
 Total energy (etotal) [Ha]= -8.86598089303812E+00

 Difference of energy with previous step (new-old):
           Absolute (Ha)=-3.20007E-07
           Relative     =-3.60938E-08

 At Broyd/MD step   4, gradients are converged : 
  max grad (force/stress) = 7.3672E-07 < tolmxf= 5.0000E-05 ha/bohr (free atoms)

================================================================================

 ----iterations are completed or convergence reached----

 Mean square residual over all n,k,spin=   1.2428E-11; max=  3.1096E-11
  -0.2500  0.5000  0.0000    1  1.95843E-11 kpt; spin; max resid(k); each band:
  1.29E-11 1.48E-11 8.88E-12 1.46E-13 1.96E-11
  -0.2500  0.0000  0.0000    1  3.10961E-11 kpt; spin; max resid(k); each band:
  1.82E-11 1.81E-11 2.82E-13 2.82E-13 3.11E-11
 reduced coordinates (array xred) for    2 atoms
       0.000000000000      0.000000000000      0.000000000000
       0.250000000000      0.250000000000      0.250000000000
 rms dE/dt=  0.0000E+00; max dE/dt=  0.0000E+00; dE/dt below (all hartree)
    1       0.000000000000      0.000000000000      0.000000000000
    2       0.000000000000      0.000000000000      0.000000000000

 cartesian coordinates (angstrom) at end:
    1      0.00000000000000     0.00000000000000     0.00000000000000
    2      1.35378984684083     1.35378984684083     1.35378984684083

 cartesian forces (hartree/bohr) at end:
    1     -0.00000000000000    -0.00000000000000    -0.00000000000000
    2     -0.00000000000000    -0.00000000000000    -0.00000000000000
 frms,max,avg= 0.0000000E+00 0.0000000E+00   0.000E+00  0.000E+00  0.000E+00 h/b

 cartesian forces (eV/Angstrom) at end:
    1     -0.00000000000000    -0.00000000000000    -0.00000000000000
    2     -0.00000000000000    -0.00000000000000    -0.00000000000000
 frms,max,avg= 0.0000000E+00 0.0000000E+00   0.000E+00  0.000E+00  0.000E+00 e/A
 length scales= 10.233168208041 10.233168208041 10.233168208041 bohr
              =  5.415159387363  5.415159387363  5.415159387363 angstroms
 prteigrs : about to open file tbase3_xo_DS1_EIG
 Fermi (or HOMO) energy (hartree) =   0.18830   Average Vxc (hartree)=  -0.35339
 Eigenvalues (hartree) for nkpt=   2  k points:
 kpt#   1, nband=  5, wtk=  0.75000, kpt= -0.2500  0.5000  0.0000 (reduced coord)
  -0.12511  -0.01968   0.08409   0.13426   0.26874
 kpt#   2, nband=  5, wtk=  0.25000, kpt= -0.2500  0.0000  0.0000 (reduced coord)
  -0.19662   0.07055   0.18830   0.18830   0.28780
 Total charge density [el/Bohr^3]
,     Maximum=    8.6343E-02  at reduced coord.    0.1000    0.1000    0.7000
,Next maximum=    8.6343E-02  at reduced coord.    0.1500    0.1500    0.5500
,     Minimum=    3.2073E-03  at reduced coord.    0.5000    0.5000    0.5000
,Next minimum=    3.2073E-03  at reduced coord.    0.7500    0.7500    0.7500
,  Integrated=    8.0000E+00

--------------------------------------------------------------------------------
 Components of total free energy (in Hartree) :

    Kinetic energy  =  3.03935749041976E+00
    Hartree energy  =  5.49384003162930E-01
    XC energy       = -3.53958226875695E+00
    Ewald energy    = -8.42249115367225E+00
    PspCore energy  =  8.56365887946529E-02
    Loc. psp. energy= -2.45304915449855E+00
    NL   psp  energy=  1.87476360151229E+00
    >>>>>>>>> Etotal= -8.86598089303812E+00

 Other information on the energy :
    Total energy(eV)= -2.41255609375886E+02 ; Band energy (Ha)=   2.3561291729E-01
--------------------------------------------------------------------------------

 Cartesian components of stress tensor (hartree/bohr^3)
  sigma(1 1)=  7.36722251E-09  sigma(3 2)=  0.00000000E+00
  sigma(2 2)=  7.36722251E-09  sigma(3 1)=  0.00000000E+00
  sigma(3 3)=  7.36722251E-09  sigma(2 1)=  0.00000000E+00

-Cartesian components of stress tensor (GPa)         [Pressure= -2.1675E-04 GPa]
- sigma(1 1)=  2.16751133E-04  sigma(3 2)=  0.00000000E+00
- sigma(2 2)=  2.16751133E-04  sigma(3 1)=  0.00000000E+00
- sigma(3 3)=  2.16751133E-04  sigma(2 1)=  0.00000000E+00

================================================================================
== DATASET  2 ==================================================================
-   nproc =    1

 mkfilename : getwfk/=0, take file _WFK from output of DATASET   1.

 Exchange-correlation functional for the present dataset will be:
  LDA: new Teter (4/93) with spin-polarized option - ixc=1
 Citation for XC functional:
  S. Goedecker, M. Teter, J. Huetter, PRB 54, 1703 (1996)

 Real(R)+Recip(G) space primitive vectors, cartesian coordinates (Bohr,Bohr^-1):
 R(1)=  0.0000000  5.0900000  5.0900000  G(1)= -0.0982318  0.0982318  0.0982318
 R(2)=  5.0900000  0.0000000  5.0900000  G(2)=  0.0982318 -0.0982318  0.0982318
 R(3)=  5.0900000  5.0900000  0.0000000  G(3)=  0.0982318  0.0982318 -0.0982318
 Unit cell volume ucvol=  2.6374446E+02 bohr^3
 Angles (23,13,12)=  6.00000000E+01  6.00000000E+01  6.00000000E+01 degrees

 getcut: wavevector=  0.0000  0.0000  0.0000  ngfft=  20  20  20
         ecut(hartree)=      8.820   => boxcut(ratio)=   2.07825
--------------------------------------------------------------------------------

-inwffil : will read wavefunctions from disk file tbase3_xo_DS1_WFK
- newkpt: read input wf with ikpt,npw=   1     326, make ikpt,npw=   1     326
- newkpt: read input wf with ikpt,npw=   2     333, make ikpt,npw=   2     333
- newkpt: read input wf with ikpt,npw=   3     329, make ikpt,npw=   3     329
- newkpt: read input wf with ikpt,npw=   4     329, make ikpt,npw=   4     329
- newkpt: read input wf with ikpt,npw=   5     328, make ikpt,npw=   5     328
- newkpt: read input wf with ikpt,npw=   6     338, make ikpt,npw=   6     338
- newkpt: read input wf with ikpt,npw=   7     330, make ikpt,npw=   7     330
- newkpt: read input wf with ikpt,npw=   8     333, make ikpt,npw=   8     333
- newkpt: read input wf with ikpt,npw=   9     329, make ikpt,npw=   9     329
- newkpt: read input wf with ikpt,npw=  10     332, make ikpt,npw=  10     332

_setup2: Arith. and geom. avg. npw (full set) are     330.781     330.766

================================================================================

=== [ionmov= 2] Broyden-Fletcher-Goldfard-Shanno method (forces)            
================================================================================

--- Iteration: ( 1/10) Internal Cycle: (1/1)
--------------------------------------------------------------------------------

---SELF-CONSISTENT-FIELD CONVERGENCE--------------------------------------------

     iter   Etot(hartree)      deltaE(h)  residm     vres2
 ETOT  1  -8.8720947153230    -8.872E+00 2.415E-04 8.328E-02
 ETOT  2  -8.8721613295166    -6.661E-05 1.042E-07 9.563E-04
 ETOT  3  -8.8721618805323    -5.510E-07 5.874E-08 1.807E-05
 ETOT  4  -8.8721618874536    -6.921E-09 8.184E-10 4.115E-08

 At SCF step    4, etot is converged : 
  for the second time, diff in etot=  6.921E-09 < toldfe=  1.000E-06

 Cartesian components of stress tensor (hartree/bohr^3)
  sigma(1 1)= -3.64209676E-05  sigma(3 2)=  0.00000000E+00
  sigma(2 2)= -3.64209676E-05  sigma(3 1)=  0.00000000E+00
  sigma(3 3)= -3.64209676E-05  sigma(2 1)=  0.00000000E+00


---OUTPUT-----------------------------------------------------------------------

 Cartesian coordinates (xcart) [bohr]
  0.00000000000000E+00  0.00000000000000E+00  0.00000000000000E+00
  2.54500000000000E+00  2.54500000000000E+00  2.54500000000000E+00
 Reduced coordinates (xred)
  0.00000000000000E+00  0.00000000000000E+00  0.00000000000000E+00
  2.50000000000000E-01  2.50000000000000E-01  2.50000000000000E-01
 Cartesian forces (fcart) [Ha/bohr]; max,rms= 0.00000E+00 0.00000E+00 (free atoms)
 -0.00000000000000E+00 -0.00000000000000E+00 -0.00000000000000E+00
 -0.00000000000000E+00 -0.00000000000000E+00 -0.00000000000000E+00
 Reduced forces (fred)
  0.00000000000000E+00  0.00000000000000E+00  0.00000000000000E+00
  0.00000000000000E+00  0.00000000000000E+00  0.00000000000000E+00
 Scale of Primitive Cell (acell) [bohr]
  1.01800000000000E+01  1.01800000000000E+01  1.01800000000000E+01
 Real space primitive translations (rprimd) [bohr]
  0.00000000000000E+00  5.09000000000000E+00  5.09000000000000E+00
  5.09000000000000E+00  0.00000000000000E+00  5.09000000000000E+00
  5.09000000000000E+00  5.09000000000000E+00  0.00000000000000E+00
 Unitary Cell Volume (ucvol) [Bohr^3]=  2.63744458000000E+02
 Angles (23,13,12)= [degrees]
  6.00000000000000E+01  6.00000000000000E+01  6.00000000000000E+01
 Lengths [Bohr]
  7.19834703247905E+00  7.19834703247905E+00  7.19834703247905E+00
 Stress tensor in cartesian coordinates (strten) [Ha/bohr^3]
 -3.64209675806524E-05  0.00000000000000E+00  0.00000000000000E+00
  0.00000000000000E+00 -3.64209675806524E-05  0.00000000000000E+00
  0.00000000000000E+00  0.00000000000000E+00 -3.64209675806524E-05
 Total energy (etotal) [Ha]= -8.87216188745358E+00

--- Iteration: ( 2/10) Internal Cycle: (1/1)
--------------------------------------------------------------------------------

---SELF-CONSISTENT-FIELD CONVERGENCE--------------------------------------------

     iter   Etot(hartree)      deltaE(h)  residm     vres2
 ETOT  1  -8.8721871813469    -8.872E+00 1.023E-07 1.797E-03
 ETOT  2  -8.8721884286060    -1.247E-06 1.688E-09 5.378E-05
 ETOT  3  -8.8721884528959    -2.429E-08 1.341E-09 8.835E-07
 ETOT  4  -8.8721884531757    -2.798E-10 4.796E-11 9.796E-10

 At SCF step    4, etot is converged : 
  for the second time, diff in etot=  2.798E-10 < toldfe=  1.000E-06

 Cartesian components of stress tensor (hartree/bohr^3)
  sigma(1 1)= -2.50649476E-05  sigma(3 2)=  0.00000000E+00
  sigma(2 2)= -2.50649476E-05  sigma(3 1)=  0.00000000E+00
  sigma(3 3)= -2.50649476E-05  sigma(2 1)=  0.00000000E+00


---OUTPUT-----------------------------------------------------------------------

 Cartesian coordinates (xcart) [bohr]
  0.00000000000000E+00  0.00000000000000E+00  0.00000000000000E+00
  2.54778074087478E+00  2.54778074087478E+00  2.54778074087478E+00
 Reduced coordinates (xred)
  0.00000000000000E+00  0.00000000000000E+00  0.00000000000000E+00
  2.50000000000000E-01  2.50000000000000E-01  2.50000000000000E-01
 Cartesian forces (fcart) [Ha/bohr]; max,rms= 0.00000E+00 0.00000E+00 (free atoms)
 -0.00000000000000E+00 -0.00000000000000E+00 -0.00000000000000E+00
 -0.00000000000000E+00 -0.00000000000000E+00 -0.00000000000000E+00
 Reduced forces (fred)
  0.00000000000000E+00  0.00000000000000E+00  0.00000000000000E+00
  0.00000000000000E+00  0.00000000000000E+00  0.00000000000000E+00
 Scale of Primitive Cell (acell) [bohr]
  1.01911229634991E+01  1.01911229634991E+01  1.01911229634991E+01
 Real space primitive translations (rprimd) [bohr]
  0.00000000000000E+00  5.09556148174957E+00  5.09556148174957E+00
  5.09556148174957E+00  0.00000000000000E+00  5.09556148174957E+00
  5.09556148174957E+00  5.09556148174957E+00  0.00000000000000E+00
 Unitary Cell Volume (ucvol) [Bohr^3]=  2.64609927500550E+02
 Angles (23,13,12)= [degrees]
  6.00000000000000E+01  6.00000000000000E+01  6.00000000000000E+01
 Lengths [Bohr]
  7.20621215539618E+00  7.20621215539618E+00  7.20621215539618E+00
 Stress tensor in cartesian coordinates (strten) [Ha/bohr^3]
 -2.50649476256527E-05  0.00000000000000E+00  0.00000000000000E+00
  0.00000000000000E+00 -2.50649476256527E-05  0.00000000000000E+00
  0.00000000000000E+00  0.00000000000000E+00 -2.50649476256527E-05
 Total energy (etotal) [Ha]= -8.87218845317567E+00

 Difference of energy with previous step (new-old):
           Absolute (Ha)=-2.65657E-05
           Relative     =-2.99427E-06

--- Iteration: ( 3/10) Internal Cycle: (1/1)
--------------------------------------------------------------------------------

---SELF-CONSISTENT-FIELD CONVERGENCE--------------------------------------------

     iter   Etot(hartree)      deltaE(h)  residm     vres2
 ETOT  1  -8.8722067077114    -8.872E+00 1.335E-07 8.978E-03
 ETOT  2  -8.8722129537821    -6.246E-06 4.516E-09 2.734E-04
 ETOT  3  -8.8722130778582    -1.241E-07 6.759E-09 4.492E-06
 ETOT  4  -8.8722130792814    -1.423E-09 2.453E-10 4.997E-09

 At SCF step    4, etot is converged : 
  for the second time, diff in etot=  1.423E-09 < toldfe=  1.000E-06

 Cartesian components of stress tensor (hartree/bohr^3)
  sigma(1 1)= -5.14821159E-07  sigma(3 2)=  0.00000000E+00
  sigma(2 2)= -5.14821159E-07  sigma(3 1)=  0.00000000E+00
  sigma(3 3)= -5.14821159E-07  sigma(2 1)=  0.00000000E+00


---OUTPUT-----------------------------------------------------------------------

 Cartesian coordinates (xcart) [bohr]
  0.00000000000000E+00  0.00000000000000E+00  0.00000000000000E+00
  2.55398344320470E+00  2.55398344320470E+00  2.55398344320470E+00
 Reduced coordinates (xred)
  0.00000000000000E+00  0.00000000000000E+00  0.00000000000000E+00
  2.50000000000000E-01  2.50000000000000E-01  2.50000000000000E-01
 Cartesian forces (fcart) [Ha/bohr]; max,rms= 0.00000E+00 0.00000E+00 (free atoms)
 -0.00000000000000E+00 -0.00000000000000E+00 -0.00000000000000E+00
 -0.00000000000000E+00 -0.00000000000000E+00 -0.00000000000000E+00
 Reduced forces (fred)
  0.00000000000000E+00  0.00000000000000E+00  0.00000000000000E+00
  0.00000000000000E+00  0.00000000000000E+00  0.00000000000000E+00
 Scale of Primitive Cell (acell) [bohr]
  1.02159337728188E+01  1.02159337728188E+01  1.02159337728188E+01
 Real space primitive translations (rprimd) [bohr]
  0.00000000000000E+00  5.10796688640940E+00  5.10796688640940E+00
  5.10796688640940E+00  0.00000000000000E+00  5.10796688640940E+00
  5.10796688640940E+00  5.10796688640940E+00  0.00000000000000E+00
 Unitary Cell Volume (ucvol) [Bohr^3]=  2.66547255525528E+02
 Angles (23,13,12)= [degrees]
  6.00000000000000E+01  6.00000000000000E+01  6.00000000000000E+01
 Lengths [Bohr]
  7.22375604691285E+00  7.22375604691285E+00  7.22375604691285E+00
 Stress tensor in cartesian coordinates (strten) [Ha/bohr^3]
 -5.14821158990105E-07  0.00000000000000E+00  0.00000000000000E+00
  0.00000000000000E+00 -5.14821158990268E-07  0.00000000000000E+00
  0.00000000000000E+00  0.00000000000000E+00 -5.14821158990213E-07
 Total energy (etotal) [Ha]= -8.87221307928143E+00

 Difference of energy with previous step (new-old):
           Absolute (Ha)=-2.46261E-05
           Relative     =-2.77565E-06

--- Iteration: ( 4/10) Internal Cycle: (1/1)
--------------------------------------------------------------------------------

---SELF-CONSISTENT-FIELD CONVERGENCE--------------------------------------------

     iter   Etot(hartree)      deltaE(h)  residm     vres2
 ETOT  1  -8.8722130873237    -8.872E+00 4.118E-09 3.967E-06
 ETOT  2  -8.8722130900782    -2.754E-09 3.764E-11 1.217E-07
 ETOT  3  -8.8722130901335    -5.531E-11 4.626E-12 1.981E-09

 At SCF step    3, etot is converged : 
  for the second time, diff in etot=  5.531E-11 < toldfe=  1.000E-06

 Cartesian components of stress tensor (hartree/bohr^3)
  sigma(1 1)= -7.16354193E-09  sigma(3 2)=  0.00000000E+00
  sigma(2 2)= -7.16354193E-09  sigma(3 1)=  0.00000000E+00
  sigma(3 3)= -7.16354193E-09  sigma(2 1)=  0.00000000E+00


---OUTPUT-----------------------------------------------------------------------

 Cartesian coordinates (xcart) [bohr]
  0.00000000000000E+00  0.00000000000000E+00  0.00000000000000E+00
  2.55411448757213E+00  2.55411448757213E+00  2.55411448757213E+00
 Reduced coordinates (xred)
  0.00000000000000E+00  0.00000000000000E+00  0.00000000000000E+00
  2.50000000000000E-01  2.50000000000000E-01  2.50000000000000E-01
 Cartesian forces (fcart) [Ha/bohr]; max,rms= 0.00000E+00 0.00000E+00 (free atoms)
 -0.00000000000000E+00 -0.00000000000000E+00 -0.00000000000000E+00
 -0.00000000000000E+00 -0.00000000000000E+00 -0.00000000000000E+00
 Reduced forces (fred)
  0.00000000000000E+00  0.00000000000000E+00  0.00000000000000E+00
  0.00000000000000E+00  0.00000000000000E+00  0.00000000000000E+00
 Scale of Primitive Cell (acell) [bohr]
  1.02164579502885E+01  1.02164579502885E+01  1.02164579502885E+01
 Real space primitive translations (rprimd) [bohr]
  0.00000000000000E+00  5.10822897514426E+00  5.10822897514426E+00
  5.10822897514426E+00  0.00000000000000E+00  5.10822897514426E+00
  5.10822897514426E+00  5.10822897514426E+00  0.00000000000000E+00
 Unitary Cell Volume (ucvol) [Bohr^3]=  2.66588287086057E+02
 Angles (23,13,12)= [degrees]
  6.00000000000000E+01  6.00000000000000E+01  6.00000000000000E+01
 Lengths [Bohr]
  7.22412669635623E+00  7.22412669635623E+00  7.22412669635623E+00
 Stress tensor in cartesian coordinates (strten) [Ha/bohr^3]
 -7.16354192544649E-09  0.00000000000000E+00  0.00000000000000E+00
  0.00000000000000E+00 -7.16354192544649E-09  0.00000000000000E+00
  0.00000000000000E+00  0.00000000000000E+00 -7.16354192528386E-09
 Total energy (etotal) [Ha]= -8.87221309013353E+00

 Difference of energy with previous step (new-old):
           Absolute (Ha)=-1.08521E-08
           Relative     =-1.22316E-09

 At Broyd/MD step   4, gradients are converged : 
  max grad (force/stress) = 7.1635E-07 < tolmxf= 5.0000E-05 ha/bohr (free atoms)

================================================================================

 ----iterations are completed or convergence reached----

 Mean square residual over all n,k,spin=   4.2470E-13; max=  4.6256E-12
  -0.1250 -0.2500  0.0000    1  6.98827E-13 kpt; spin; max resid(k); each band:
  5.40E-13 1.51E-13 6.24E-15 3.17E-13 6.99E-13
  -0.1250  0.5000  0.0000    1  1.12018E-12 kpt; spin; max resid(k); each band:
  1.55E-13 7.39E-13 3.18E-13 4.99E-15 1.12E-12
  -0.2500 -0.3750  0.0000    1  8.58669E-13 kpt; spin; max resid(k); each band:
  6.21E-13 1.02E-13 2.67E-13 3.59E-15 8.59E-13
  -0.1250 -0.3750  0.1250    1  4.62558E-12 kpt; spin; max resid(k); each band:
  4.18E-13 3.00E-13 5.78E-13 1.23E-13 4.63E-12
  -0.1250  0.2500  0.0000    1  6.69199E-13 kpt; spin; max resid(k); each band:
  3.22E-13 4.61E-13 2.67E-13 1.65E-15 6.69E-13
  -0.2500  0.3750  0.0000    1  5.50339E-13 kpt; spin; max resid(k); each band:
  7.90E-14 5.50E-13 2.27E-13 3.92E-15 4.63E-13
  -0.3750  0.5000  0.0000    1  5.72843E-13 kpt; spin; max resid(k); each band:
  3.91E-13 1.55E-13 8.80E-14 2.11E-14 5.73E-13
  -0.2500  0.5000  0.1250    1  9.20651E-13 kpt; spin; max resid(k); each band:
  1.65E-13 2.25E-13 1.29E-13 5.55E-13 9.21E-13
  -0.1250  0.0000  0.0000    1  3.95487E-13 kpt; spin; max resid(k); each band:
  2.70E-13 1.56E-13 1.34E-14 1.34E-14 3.95E-13
  -0.3750  0.0000  0.0000    1  1.00323E-12 kpt; spin; max resid(k); each band:
  3.63E-13 7.99E-13 3.49E-15 3.49E-15 1.00E-12
 reduced coordinates (array xred) for    2 atoms
       0.000000000000      0.000000000000      0.000000000000
       0.250000000000      0.250000000000      0.250000000000
 rms dE/dt=  0.0000E+00; max dE/dt=  0.0000E+00; dE/dt below (all hartree)
    1       0.000000000000      0.000000000000      0.000000000000
    2       0.000000000000      0.000000000000      0.000000000000

 cartesian coordinates (angstrom) at end:
    1      0.00000000000000     0.00000000000000     0.00000000000000
    2      1.35157917495270     1.35157917495270     1.35157917495270

 cartesian forces (hartree/bohr) at end:
    1     -0.00000000000000    -0.00000000000000    -0.00000000000000
    2     -0.00000000000000    -0.00000000000000    -0.00000000000000
 frms,max,avg= 0.0000000E+00 0.0000000E+00   0.000E+00  0.000E+00  0.000E+00 h/b

 cartesian forces (eV/Angstrom) at end:
    1     -0.00000000000000    -0.00000000000000    -0.00000000000000
    2     -0.00000000000000    -0.00000000000000    -0.00000000000000
 frms,max,avg= 0.0000000E+00 0.0000000E+00   0.000E+00  0.000E+00  0.000E+00 e/A
 length scales= 10.216457950289 10.216457950289 10.216457950289 bohr
              =  5.406316699811  5.406316699811  5.406316699811 angstroms
 prteigrs : about to open file tbase3_xo_DS2_EIG
 Fermi (or HOMO) energy (hartree) =   0.20652   Average Vxc (hartree)=  -0.35454
 Eigenvalues (hartree) for nkpt=  10  k points:
 kpt#   1, nband=  5, wtk=  0.09375, kpt= -0.1250 -0.2500  0.0000 (reduced coord)
  -0.19906   0.09755   0.16774   0.17061   0.29409
 kpt#   2, nband=  5, wtk=  0.09375, kpt= -0.1250  0.5000  0.0000 (reduced coord)
  -0.13611  -0.03404   0.13186   0.15884   0.29574
 kpt#   3, nband=  5, wtk=  0.09375, kpt= -0.2500 -0.3750  0.0000 (reduced coord)
  -0.15984   0.03456   0.11690   0.13456   0.26383
 kpt#   4, nband=  5, wtk=  0.18750, kpt= -0.1250 -0.3750  0.1250 (reduced coord)
  -0.14384   0.00060   0.09257   0.14481   0.32117
 kpt#   5, nband=  5, wtk=  0.09375, kpt= -0.1250  0.2500  0.0000 (reduced coord)
  -0.18004   0.04537   0.13042   0.18839   0.31542
 kpt#   6, nband=  5, wtk=  0.09375, kpt= -0.2500  0.3750  0.0000 (reduced coord)
  -0.11733  -0.02919   0.06725   0.14664   0.28211
 kpt#   7, nband=  5, wtk=  0.09375, kpt= -0.3750  0.5000  0.0000 (reduced coord)
  -0.10387  -0.03536   0.08810   0.11684   0.24639
 kpt#   8, nband=  5, wtk=  0.18750, kpt= -0.2500  0.5000  0.1250 (reduced coord)
  -0.09705  -0.03929   0.06446   0.10596   0.30259
 kpt#   9, nband=  5, wtk=  0.03125, kpt= -0.1250  0.0000  0.0000 (reduced coord)
  -0.21910   0.15766   0.20652   0.20652   0.30730
 kpt#  10, nband=  5, wtk=  0.03125, kpt= -0.3750  0.0000  0.0000 (reduced coord)
  -0.16338  -0.00420   0.17667   0.17667   0.27609
 Total charge density [el/Bohr^3]
,     Maximum=    8.5799E-02  at reduced coord.    0.1000    0.1000    0.7000
,Next maximum=    8.5799E-02  at reduced coord.    0.1500    0.1500    0.5500
,     Minimum=    3.5232E-03  at reduced coord.    0.5000    0.5000    0.5000
,Next minimum=    3.5232E-03  at reduced coord.    0.7500    0.7500    0.7500
,  Integrated=    8.0000E+00

--------------------------------------------------------------------------------
 Components of total free energy (in Hartree) :

    Kinetic energy  =  3.02474160682098E+00
    Hartree energy  =  5.37856135157163E-01
    XC energy       = -3.53877155677950E+00
    Ewald energy    = -8.43626716085443E+00
    PspCore energy  =  8.60574835934296E-02
    Loc. psp. energy= -2.43145733216178E+00
    NL   psp  energy=  1.88562773409060E+00
    >>>>>>>>> Etotal= -8.87221309013353E+00

 Other information on the energy :
    Total energy(eV)= -2.41425196083340E+02 ; Band energy (Ha)=   2.3181522308E-01
--------------------------------------------------------------------------------

 Cartesian components of stress tensor (hartree/bohr^3)
  sigma(1 1)= -7.16354193E-09  sigma(3 2)=  0.00000000E+00
  sigma(2 2)= -7.16354193E-09  sigma(3 1)=  0.00000000E+00
  sigma(3 3)= -7.16354193E-09  sigma(2 1)=  0.00000000E+00

-Cartesian components of stress tensor (GPa)         [Pressure=  2.1076E-04 GPa]
- sigma(1 1)= -2.10758644E-04  sigma(3 2)=  0.00000000E+00
- sigma(2 2)= -2.10758644E-04  sigma(3 1)=  0.00000000E+00
- sigma(3 3)= -2.10758644E-04  sigma(2 1)=  0.00000000E+00

== END DATASET(S) ==============================================================
================================================================================
  
 -outvars: echo values of variables after computation  --------
            acell1     1.0233168208E+01  1.0233168208E+01  1.0233168208E+01 Bohr
            acell2     1.0216457950E+01  1.0216457950E+01  1.0216457950E+01 Bohr
              amu      2.80855000E+01
           diemac      1.20000000E+01
          dilatmx      1.05000000E+00
             ecut      8.00000000E+00 Hartree
           ecutsm      5.00000000E-01 Hartree
           etotal1    -8.8659808930E+00
           etotal2    -8.8722130901E+00
            fcart1    -0.0000000000E+00 -0.0000000000E+00 -0.0000000000E+00
                      -0.0000000000E+00 -0.0000000000E+00 -0.0000000000E+00
            fcart2    -0.0000000000E+00 -0.0000000000E+00 -0.0000000000E+00
                      -0.0000000000E+00 -0.0000000000E+00 -0.0000000000E+00
           getwfk          -1
           ionmov           2
           jdtset        1    2
              kpt1    -2.50000000E-01  5.00000000E-01  0.00000000E+00
                      -2.50000000E-01  0.00000000E+00  0.00000000E+00
              kpt2    -1.25000000E-01 -2.50000000E-01  0.00000000E+00
                      -1.25000000E-01  5.00000000E-01  0.00000000E+00
                      -2.50000000E-01 -3.75000000E-01  0.00000000E+00
                      -1.25000000E-01 -3.75000000E-01  1.25000000E-01
                      -1.25000000E-01  2.50000000E-01  0.00000000E+00
                      -2.50000000E-01  3.75000000E-01  0.00000000E+00
                      -3.75000000E-01  5.00000000E-01  0.00000000E+00
                      -2.50000000E-01  5.00000000E-01  1.25000000E-01
                      -1.25000000E-01  0.00000000E+00  0.00000000E+00
                      -3.75000000E-01  0.00000000E+00  0.00000000E+00
         kptrlatt1       2   -2    2     -2    2    2     -2   -2    2
         kptrlatt2       4   -4    4     -4    4    4     -4   -4    4
          kptrlen1     2.03600000E+01
          kptrlen2     4.07200000E+01
P           mkmem1          2
P           mkmem2         10
            natom           2
            nband1          5
            nband2          5
           ndtset           2
            ngfft          20      20      20
             nkpt1          2
             nkpt2         10
            nstep          10
             nsym          48
            ntime          10
           ntypat           1
              occ1     2.000000  2.000000  2.000000  2.000000  0.000000
              occ2     2.000000  2.000000  2.000000  2.000000  0.000000
          optcell           1
            rprim      0.0000000000E+00  5.0000000000E-01  5.0000000000E-01
                       5.0000000000E-01  0.0000000000E+00  5.0000000000E-01
                       5.0000000000E-01  5.0000000000E-01  0.0000000000E+00
           shiftk      5.00000000E-01  5.00000000E-01  5.00000000E-01
          spgroup         227
           strten1     7.3672225084E-09  7.3672225084E-09  7.3672225084E-09
                       0.0000000000E+00  0.0000000000E+00  0.0000000000E+00
           strten2    -7.1635419254E-09 -7.1635419254E-09 -7.1635419253E-09
                       0.0000000000E+00  0.0000000000E+00  0.0000000000E+00
           symrel      1  0  0   0  1  0   0  0  1      -1  0  0   0 -1  0   0  0 -1
                       0 -1  1   0 -1  0   1 -1  0       0  1 -1   0  1  0  -1  1  0
                      -1  0  0  -1  0  1  -1  1  0       1  0  0   1  0 -1   1 -1  0
                       0  1 -1   1  0 -1   0  0 -1       0 -1  1  -1  0  1   0  0  1
                      -1  0  0  -1  1  0  -1  0  1       1  0  0   1 -1  0   1  0 -1
                       0 -1  1   1 -1  0   0 -1  0       0  1 -1  -1  1  0   0  1  0
                       1  0  0   0  0  1   0  1  0      -1  0  0   0  0 -1   0 -1  0
                       0  1 -1   0  0 -1   1  0 -1       0 -1  1   0  0  1  -1  0  1
                      -1  0  1  -1  1  0  -1  0  0       1  0 -1   1 -1  0   1  0  0
                       0 -1  0   1 -1  0   0 -1  1       0  1  0  -1  1  0   0  1 -1
                       1  0 -1   0  0 -1   0  1 -1      -1  0  1   0  0  1   0 -1  1
                       0  1  0   0  0  1   1  0  0       0 -1  0   0  0 -1  -1  0  0
                       1  0 -1   0  1 -1   0  0 -1      -1  0  1   0 -1  1   0  0  1
                       0 -1  0   0 -1  1   1 -1  0       0  1  0   0  1 -1  -1  1  0
                      -1  0  1  -1  0  0  -1  1  0       1  0 -1   1  0  0   1 -1  0
                       0  1  0   1  0  0   0  0  1       0 -1  0  -1  0  0   0  0 -1
                       0  0 -1   0  1 -1   1  0 -1       0  0  1   0 -1  1  -1  0  1
                       1 -1  0   0 -1  1   0 -1  0      -1  1  0   0  1 -1   0  1  0
                       0  0  1   1  0  0   0  1  0       0  0 -1  -1  0  0   0 -1  0
                      -1  1  0  -1  0  0  -1  0  1       1 -1  0   1  0  0   1  0 -1
                       0  0  1   0  1  0   1  0  0       0  0 -1   0 -1  0  -1  0  0
                       1 -1  0   0 -1  0   0 -1  1      -1  1  0   0  1  0   0  1 -1
                       0  0 -1   1  0 -1   0  1 -1       0  0  1  -1  0  1   0 -1  1
                      -1  1  0  -1  0  1  -1  0  0       1 -1  0   1  0 -1   1  0  0
            tnons      0.0000000  0.0000000  0.0000000     0.2500000  0.2500000  0.2500000
                       0.0000000  0.0000000  0.0000000     0.2500000  0.2500000  0.2500000
                       0.0000000  0.0000000  0.0000000     0.2500000  0.2500000  0.2500000
                       0.0000000  0.0000000  0.0000000     0.2500000  0.2500000  0.2500000
                       0.0000000  0.0000000  0.0000000     0.2500000  0.2500000  0.2500000
                       0.0000000  0.0000000  0.0000000     0.2500000  0.2500000  0.2500000
                       0.0000000  0.0000000  0.0000000     0.2500000  0.2500000  0.2500000
                       0.0000000  0.0000000  0.0000000     0.2500000  0.2500000  0.2500000
                       0.0000000  0.0000000  0.0000000     0.2500000  0.2500000  0.2500000
                       0.0000000  0.0000000  0.0000000     0.2500000  0.2500000  0.2500000
                       0.0000000  0.0000000  0.0000000     0.2500000  0.2500000  0.2500000
                       0.0000000  0.0000000  0.0000000     0.2500000  0.2500000  0.2500000
                       0.0000000  0.0000000  0.0000000     0.2500000  0.2500000  0.2500000
                       0.0000000  0.0000000  0.0000000     0.2500000  0.2500000  0.2500000
                       0.0000000  0.0000000  0.0000000     0.2500000  0.2500000  0.2500000
                       0.0000000  0.0000000  0.0000000     0.2500000  0.2500000  0.2500000
                       0.0000000  0.0000000  0.0000000     0.2500000  0.2500000  0.2500000
                       0.0000000  0.0000000  0.0000000     0.2500000  0.2500000  0.2500000
                       0.0000000  0.0000000  0.0000000     0.2500000  0.2500000  0.2500000
                       0.0000000  0.0000000  0.0000000     0.2500000  0.2500000  0.2500000
                       0.0000000  0.0000000  0.0000000     0.2500000  0.2500000  0.2500000
                       0.0000000  0.0000000  0.0000000     0.2500000  0.2500000  0.2500000
                       0.0000000  0.0000000  0.0000000     0.2500000  0.2500000  0.2500000
                       0.0000000  0.0000000  0.0000000     0.2500000  0.2500000  0.2500000
           toldfe      1.00000000E-06 Hartree
            typat      1  1
              wtk1       0.75000    0.25000
              wtk2       0.09375    0.09375    0.09375    0.18750    0.09375    0.09375
                         0.09375    0.18750    0.03125    0.03125
           xangst1     0.0000000000E+00  0.0000000000E+00  0.0000000000E+00
                       1.3537898468E+00  1.3537898468E+00  1.3537898468E+00
           xangst2     0.0000000000E+00  0.0000000000E+00  0.0000000000E+00
                       1.3515791750E+00  1.3515791750E+00  1.3515791750E+00
            xcart1     0.0000000000E+00  0.0000000000E+00  0.0000000000E+00
                       2.5582920520E+00  2.5582920520E+00  2.5582920520E+00
            xcart2     0.0000000000E+00  0.0000000000E+00  0.0000000000E+00
                       2.5541144876E+00  2.5541144876E+00  2.5541144876E+00
             xred      0.0000000000E+00  0.0000000000E+00  0.0000000000E+00
                       2.5000000000E-01  2.5000000000E-01  2.5000000000E-01
            znucl       14.00000

================================================================================


- Timing analysis has been suppressed with timopt=0



================================================================================

 Suggested references for the acknowledgment of ABINIT usage.

 The users of ABINIT have little formal obligations with respect to the ABINIT group
 (those specified in the GNU General Public License, http://www.gnu.org/copyleft/gpl.txt).
 However, it is common practice in the scientific literature,
 to acknowledge the efforts of people that have made the research possible.
 In this spirit, please find below suggested citations of work written by ABINIT developers,
 corresponding to implementations inside of ABINIT that you have used in the present run.
 Note also that it will be of great value to readers of publications presenting these results,
 to read papers enabling them to understand the theoretical formalism and details
 of the ABINIT implementation.
 For information on why they are suggested, see also http://www.abinit.org/about/?text=acknowledgments.

 [1] ABINIT : First-principles approach of materials and nanosystem properties.
 X. Gonze, B. Amadon, P.-M. Anglade, J.-M. Beuken, F. Bottin, P. Boulanger, F. Bruneval,
 D. Caliste, R. Caracas, M. Cote, T. Deutsch, L. Genovese, Ph. Ghosez, M. Giantomassi
 S. Goedecker, D.R. Hamann, P. Hermet, F. Jollet, G. Jomard, S. Leroux, M. Mancini, S. Mazevet,
 M.J.T. Oliveira, G. Onida, Y. Pouillon, T. Rangel, G.-M. Rignanese, D. Sangalli, R. Shaltaf,
 M. Torrent, M.J. Verstraete, G. Zerah, J.W. Zwanziger
 Computer Phys. Comm. 180, 2582-2615 (2009).
 Comment : the third generic paper describing the ABINIT project.
 Note that a version of this paper, that is not formatted for Computer Phys. Comm. 
 is available at http://www.abinit.org/about/ABINIT_CPC_v10.pdf .
 The licence allows the authors to put it on the Web.

 [2] A brief introduction to the ABINIT software package.
 X. Gonze, G.-M. Rignanese, M. Verstraete, J.-M. Beuken, Y. Pouillon, R. Caracas, F. Jollet,
 M. Torrent, G. Zerah, M. Mikami, Ph. Ghosez, M. Veithen, J.-Y. Raty, V. Olevano, F. Bruneval,
 L. Reining, R. Godby, G. Onida, D.R. Hamann, and D.C. Allan.
 Z. Kristallogr. 220, 558-562 (2005).
 Comment : the second generic paper describing the ABINIT project. Note that this paper
 should be cited especially if you are using the GW part of ABINIT, as several authors
 of this part are not in the list of authors of the first or third paper.
 The .pdf of the latter paper is available at http://www.abinit.org/about/zfk_0505-06_558-562.pdf.
 Note that it should not redistributed (Copyright by Oldenburg Wissenshaftverlag,
 the licence allows the authors to put it on the Web).


 And optionally :

 [3] First-principles computation of material properties : the ABINIT software project. 
 X. Gonze, J.-M. Beuken, R. Caracas, F. Detraux, M. Fuchs, G.-M. Rignanese, L. Sindic,
 M. Verstraete, G. Zerah, F. Jollet, M. Torrent, A. Roy, M. Mikami, Ph. Ghosez, J.-Y. Raty, D.C. Allan.
 Computational Materials Science 25, 478-492 (2002). http://dx.doi.org/10.1016/S0927-0256(02)00325-7
 Comment : the original paper describing the ABINIT project.

 [4] Fast radix 2, 3, 4 and 5 kernels for Fast Fourier Transformations
 on computers with overlapping multiply-add instructions.
 S. Goedecker, SIAM J. on Scientific Computing 18, 1605 (1997).
-
- Proc.   0 individual time (sec): cpu=          3.8  wall=          4.1

================================================================================

 Calculation completed.
.Delivered    6 WARNINGs and   4 COMMENTs to log file.
+Overall time at end (sec) : cpu=          3.8  wall=          4.1
