  ABINIT 
  
  Give name for formatted input file: 
tbase1_2.in
  Give name for formatted output file:
tbase1_2.out
  Give root name for generic input files:
tbase1_xi
  Give root name for generic output files:
tbase1_xo
  Give root name for generic temporary files:
tbase1_x

 herald :  WARNING -
  The starting date is more than 3 years after the initial release
  of this version of ABINIT, namely Aug 2013.
  This version of ABINIT is not supported anymore.
  Action : please, switch to a more recent version of ABINIT.

.Version 7.4.3 of ABINIT 
.(MPI version, prepared for a i686_cygwin_gnu4.7 computer) 

.Copyright (C) 1998-2013 ABINIT group . 
 ABINIT comes with ABSOLUTELY NO WARRANTY.
 It is free software, and you are welcome to redistribute it
 under certain conditions (GNU General Public License,
 see ~abinit/COPYING or http://www.gnu.org/copyleft/gpl.txt).

 ABINIT is a project of the Universite Catholique de Louvain,
 Corning Inc. and other collaborators, see ~abinit/doc/developers/contributors.txt .
 Please read ~abinit/doc/users/acknowledgments.html for suggested
 acknowledgments of the ABINIT effort.
 For more information, see http://www.abinit.org .

.Starting date : Mon  4 Jun 2018.
- ( at 12h33 )
  

 herald :  WARNING -
  The starting date is more than 3 years after the initial release
  of this version of ABINIT, namely Aug 2013.
  This version of ABINIT is not supported anymore.
  Action : please, switch to a more recent version of ABINIT.

 herald :  WARNING -
  The starting date is more than 3 years after the initial release
  of this version of ABINIT, namely Aug 2013.
  This version of ABINIT is not supported anymore.
  Action : please, switch to a more recent version of ABINIT.

 ++++++++++++++++++++++++++++++++++++++++++++++++++++++++++++++++++++++++++++++

 === Build Information === 
  Version       : 7.4.3
  Build target  : i686_cygwin_gnu4.7
  Build date    : 20131019

 === Compiler Suite === 
  C compiler       : gnu
  CFLAGS           : -mfpmath=sse -msse2 -O2 -Wstrict-aliasing=2 -static
  C++ compiler     : gnu4.7
  CXXFLAGS         : -mfpmath=sse -msse2 -O2 -Wstrict-aliasing=2 -static
  Fortran compiler : gnu4.7
  FCFLAGS          : -mfpmath=sse -msse2 -O2 -ffree-line-length-none -Wstrict-aliasing=2 -static
  FC_LDFLAGS       : 

 === Optimizations === 
  Debug level        : no
  Optimization level : standard
  Architecture       : _

 === MPI === 
  Parallel build : yes
  Parallel I/O   : no
  Time tracing   : no
  GPU support    : no

 === Connectors / Fallbacks === 
  Connectors on : yes
  Fallbacks on  : yes
  DFT flavor    : libxc+atompaw+bigdft+wannier90
  FFT flavor    : none
  LINALG flavor : netlib
  MATH flavor   : none
  TIMER flavor  : abinit
  TRIO flavor   : netcdf+etsf_io

 === Experimental features === 
  Bindings            : no
  Exports             : no
  GW double-precision : yes

 === Bazaar branch information === 
  Branch ID : xavier.gonze@uclouvain.be-20131019063522-8wupmx7xtg5stywd
  Revision  : 490
  Committed : 0

 ++++++++++++++++++++++++++++++++++++++++++++++++++++++++++++++++++++++++++++++


 ++++++++++++++++++++++++++++++++++++++++++++++++++++++++++++++++++++++++++++++
 Default optimizations:
   --- None ---


 ++++++++++++++++++++++++++++++++++++++++++++++++++++++++++++++++++++++++++++++


 ++++++++++++++++++++++++++++++++++++++++++++++++++++++++++++++++++++++++++++++
 CPP options activated during the build:

                    CC_GNU                   CXX_GNU                    FC_GNU

           HAVE_BZR_BRANCH          HAVE_DFT_ATOMPAW           HAVE_DFT_BIGDFT

            HAVE_DFT_LIBXC        HAVE_DFT_WANNIER90 HAVE_FC_ALLOCATABLE_DT...

      HAVE_FC_COMMAND_LINE        HAVE_FC_CONTIGUOUS           HAVE_FC_CPUTIME

              HAVE_FC_EXIT             HAVE_FC_FLUSH             HAVE_FC_GAMMA

            HAVE_FC_GETENV          HAVE_FC_INT_QUAD             HAVE_FC_IOMSG

     HAVE_FC_ISO_C_BINDING        HAVE_FC_LONG_LINES              HAVE_FC_NULL

         HAVE_FC_STREAM_IO          HAVE_FORTRAN2003               HAVE_LINALG

        HAVE_LINALG_SERIAL                  HAVE_MPI                 HAVE_MPI1

 HAVE_MPI_TYPE_CREATE_S...           HAVE_OS_WINDOWS                HAVE_TIMER

         HAVE_TIMER_ABINIT            HAVE_TIMER_MPI         HAVE_TIMER_SERIAL

         HAVE_TRIO_ETSF_IO          HAVE_TRIO_NETCDF
 ++++++++++++++++++++++++++++++++++++++++++++++++++++++++++++++++++++++++++++++

- input  file    -> tbase1_2.in
- output file    -> tbase1_2.out
- root for input  files -> tbase1_xi
- root for output files -> tbase1_xo

-instrng :    78 lines of input have been read from file tbase1_2.in


 iofn2 : Please give name of formatted atomic psp file
 iofn2 : for atom type   1 , psp file is 01h.pspgth
  read the values zionpsp=  1.0 , pspcod=   2 , lmax=   0

 inpspheads : deduce mpsang  =   1, n1xccc  =   0.

 invars1m : enter jdtset=     1
 invars1 : treat image number     1

 symlatt : the Bravais lattice is cP (primitive cubic)
  xcart  is defined in input file
 ingeo : takes atomic coordinates from input array xcart

 symlatt : the Bravais lattice is cP (primitive cubic)

 symlatt : the Bravais lattice is cP (primitive cubic)

 symbrav : COMMENT -
  The Bravais lattice determined only from the primitive
  vectors, bravais(1)=  7, is more symmetric
  than the real one, iholohedry=  4, obtained by taking into
  account the atomic positions. Start deforming the primitive vector set.

 symlatt : the Bravais lattice is tP (primitive tetragonal)
 symspgr : the symmetry operation no.   1 is the identity
 symspgr : the symmetry operation no.   2 is an inversion
 symaxes : the symmetry operation no.   3 is a 2-axis
 symplanes : the symmetry operation no.   4 is a mirror plane
 symaxes : the symmetry operation no.   5 is a 2-axis
 symplanes : the symmetry operation no.   6 is a mirror plane
 symaxes : the symmetry operation no.   7 is a 2-axis
 symplanes : the symmetry operation no.   8 is a mirror plane
 symplanes : the symmetry operation no.   9 is a mirror plane
 symaxes : the symmetry operation no.  10 is a tertiary 2-axis
 symspgr : the symmetry operation no.  11 is a -4 axis
 symaxes : the symmetry operation no.  12 is a 4-axis
 symspgr : the symmetry operation no.  13 is a -4 axis
 symaxes : the symmetry operation no.  14 is a 4-axis
 symplanes : the symmetry operation no.  15 is a mirror plane
 symaxes : the symmetry operation no.  16 is a tertiary 2-axis
 symspgr : spgroup= 123  P4/m m m   (=D4h^1)
 inkpts: Sum of    1 k point weights is    1.000000

 invars1m : enter jdtset=     2
 invars1 : treat image number     1

 symlatt : the Bravais lattice is cP (primitive cubic)
  xcart  is defined in input file
 ingeo : takes atomic coordinates from input array xcart

 symlatt : the Bravais lattice is cP (primitive cubic)

 symlatt : the Bravais lattice is cP (primitive cubic)

 symbrav : COMMENT -
  The Bravais lattice determined only from the primitive
  vectors, bravais(1)=  7, is more symmetric
  than the real one, iholohedry=  4, obtained by taking into
  account the atomic positions. Start deforming the primitive vector set.

 symlatt : the Bravais lattice is tP (primitive tetragonal)
 symspgr : the symmetry operation no.   1 is the identity
 symspgr : the symmetry operation no.   2 is an inversion
 symaxes : the symmetry operation no.   3 is a 2-axis
 symplanes : the symmetry operation no.   4 is a mirror plane
 symaxes : the symmetry operation no.   5 is a 2-axis
 symplanes : the symmetry operation no.   6 is a mirror plane
 symaxes : the symmetry operation no.   7 is a 2-axis
 symplanes : the symmetry operation no.   8 is a mirror plane
 symplanes : the symmetry operation no.   9 is a mirror plane
 symaxes : the symmetry operation no.  10 is a tertiary 2-axis
 symspgr : the symmetry operation no.  11 is a -4 axis
 symaxes : the symmetry operation no.  12 is a 4-axis
 symspgr : the symmetry operation no.  13 is a -4 axis
 symaxes : the symmetry operation no.  14 is a 4-axis
 symplanes : the symmetry operation no.  15 is a mirror plane
 symaxes : the symmetry operation no.  16 is a tertiary 2-axis
 symspgr : spgroup= 123  P4/m m m   (=D4h^1)
 inkpts: Sum of    1 k point weights is    1.000000

 invars1m : enter jdtset=     3
 invars1 : treat image number     1

 symlatt : the Bravais lattice is cP (primitive cubic)
  xcart  is defined in input file
 ingeo : takes atomic coordinates from input array xcart

 symlatt : the Bravais lattice is cP (primitive cubic)

 symlatt : the Bravais lattice is cP (primitive cubic)

 symbrav : COMMENT -
  The Bravais lattice determined only from the primitive
  vectors, bravais(1)=  7, is more symmetric
  than the real one, iholohedry=  4, obtained by taking into
  account the atomic positions. Start deforming the primitive vector set.

 symlatt : the Bravais lattice is tP (primitive tetragonal)
 symspgr : the symmetry operation no.   1 is the identity
 symspgr : the symmetry operation no.   2 is an inversion
 symaxes : the symmetry operation no.   3 is a 2-axis
 symplanes : the symmetry operation no.   4 is a mirror plane
 symaxes : the symmetry operation no.   5 is a 2-axis
 symplanes : the symmetry operation no.   6 is a mirror plane
 symaxes : the symmetry operation no.   7 is a 2-axis
 symplanes : the symmetry operation no.   8 is a mirror plane
 symplanes : the symmetry operation no.   9 is a mirror plane
 symaxes : the symmetry operation no.  10 is a tertiary 2-axis
 symspgr : the symmetry operation no.  11 is a -4 axis
 symaxes : the symmetry operation no.  12 is a 4-axis
 symspgr : the symmetry operation no.  13 is a -4 axis
 symaxes : the symmetry operation no.  14 is a 4-axis
 symplanes : the symmetry operation no.  15 is a mirror plane
 symaxes : the symmetry operation no.  16 is a tertiary 2-axis
 symspgr : spgroup= 123  P4/m m m   (=D4h^1)
 inkpts: Sum of    1 k point weights is    1.000000

 invars1m : enter jdtset=     4
 invars1 : treat image number     1

 symlatt : the Bravais lattice is cP (primitive cubic)
  xcart  is defined in input file
 ingeo : takes atomic coordinates from input array xcart

 symlatt : the Bravais lattice is cP (primitive cubic)

 symlatt : the Bravais lattice is cP (primitive cubic)

 symbrav : COMMENT -
  The Bravais lattice determined only from the primitive
  vectors, bravais(1)=  7, is more symmetric
  than the real one, iholohedry=  4, obtained by taking into
  account the atomic positions. Start deforming the primitive vector set.

 symlatt : the Bravais lattice is tP (primitive tetragonal)
 symspgr : the symmetry operation no.   1 is the identity
 symspgr : the symmetry operation no.   2 is an inversion
 symaxes : the symmetry operation no.   3 is a 2-axis
 symplanes : the symmetry operation no.   4 is a mirror plane
 symaxes : the symmetry operation no.   5 is a 2-axis
 symplanes : the symmetry operation no.   6 is a mirror plane
 symaxes : the symmetry operation no.   7 is a 2-axis
 symplanes : the symmetry operation no.   8 is a mirror plane
 symplanes : the symmetry operation no.   9 is a mirror plane
 symaxes : the symmetry operation no.  10 is a tertiary 2-axis
 symspgr : the symmetry operation no.  11 is a -4 axis
 symaxes : the symmetry operation no.  12 is a 4-axis
 symspgr : the symmetry operation no.  13 is a -4 axis
 symaxes : the symmetry operation no.  14 is a 4-axis
 symplanes : the symmetry operation no.  15 is a mirror plane
 symaxes : the symmetry operation no.  16 is a tertiary 2-axis
 symspgr : spgroup= 123  P4/m m m   (=D4h^1)
 inkpts: Sum of    1 k point weights is    1.000000

 invars1m : enter jdtset=     5
 invars1 : treat image number     1

 symlatt : the Bravais lattice is cP (primitive cubic)
  xcart  is defined in input file
 ingeo : takes atomic coordinates from input array xcart

 symlatt : the Bravais lattice is cP (primitive cubic)

 symlatt : the Bravais lattice is cP (primitive cubic)

 symbrav : COMMENT -
  The Bravais lattice determined only from the primitive
  vectors, bravais(1)=  7, is more symmetric
  than the real one, iholohedry=  4, obtained by taking into
  account the atomic positions. Start deforming the primitive vector set.

 symlatt : the Bravais lattice is tP (primitive tetragonal)
 symspgr : the symmetry operation no.   1 is the identity
 symspgr : the symmetry operation no.   2 is an inversion
 symaxes : the symmetry operation no.   3 is a 2-axis
 symplanes : the symmetry operation no.   4 is a mirror plane
 symaxes : the symmetry operation no.   5 is a 2-axis
 symplanes : the symmetry operation no.   6 is a mirror plane
 symaxes : the symmetry operation no.   7 is a 2-axis
 symplanes : the symmetry operation no.   8 is a mirror plane
 symplanes : the symmetry operation no.   9 is a mirror plane
 symaxes : the symmetry operation no.  10 is a tertiary 2-axis
 symspgr : the symmetry operation no.  11 is a -4 axis
 symaxes : the symmetry operation no.  12 is a 4-axis
 symspgr : the symmetry operation no.  13 is a -4 axis
 symaxes : the symmetry operation no.  14 is a 4-axis
 symplanes : the symmetry operation no.  15 is a mirror plane
 symaxes : the symmetry operation no.  16 is a tertiary 2-axis
 symspgr : spgroup= 123  P4/m m m   (=D4h^1)
 inkpts: Sum of    1 k point weights is    1.000000

 invars1m : enter jdtset=     6
 invars1 : treat image number     1

 symlatt : the Bravais lattice is cP (primitive cubic)
  xcart  is defined in input file
 ingeo : takes atomic coordinates from input array xcart

 symlatt : the Bravais lattice is cP (primitive cubic)

 symlatt : the Bravais lattice is cP (primitive cubic)

 symbrav : COMMENT -
  The Bravais lattice determined only from the primitive
  vectors, bravais(1)=  7, is more symmetric
  than the real one, iholohedry=  4, obtained by taking into
  account the atomic positions. Start deforming the primitive vector set.

 symlatt : the Bravais lattice is tP (primitive tetragonal)
 symspgr : the symmetry operation no.   1 is the identity
 symspgr : the symmetry operation no.   2 is an inversion
 symaxes : the symmetry operation no.   3 is a 2-axis
 symplanes : the symmetry operation no.   4 is a mirror plane
 symaxes : the symmetry operation no.   5 is a 2-axis
 symplanes : the symmetry operation no.   6 is a mirror plane
 symaxes : the symmetry operation no.   7 is a 2-axis
 symplanes : the symmetry operation no.   8 is a mirror plane
 symplanes : the symmetry operation no.   9 is a mirror plane
 symaxes : the symmetry operation no.  10 is a tertiary 2-axis
 symspgr : the symmetry operation no.  11 is a -4 axis
 symaxes : the symmetry operation no.  12 is a 4-axis
 symspgr : the symmetry operation no.  13 is a -4 axis
 symaxes : the symmetry operation no.  14 is a 4-axis
 symplanes : the symmetry operation no.  15 is a mirror plane
 symaxes : the symmetry operation no.  16 is a tertiary 2-axis
 symspgr : spgroup= 123  P4/m m m   (=D4h^1)
 inkpts: Sum of    1 k point weights is    1.000000

 invars1m : enter jdtset=     7
 invars1 : treat image number     1

 symlatt : the Bravais lattice is cP (primitive cubic)
  xcart  is defined in input file
 ingeo : takes atomic coordinates from input array xcart

 symlatt : the Bravais lattice is cP (primitive cubic)

 symlatt : the Bravais lattice is cP (primitive cubic)

 symbrav : COMMENT -
  The Bravais lattice determined only from the primitive
  vectors, bravais(1)=  7, is more symmetric
  than the real one, iholohedry=  4, obtained by taking into
  account the atomic positions. Start deforming the primitive vector set.

 symlatt : the Bravais lattice is tP (primitive tetragonal)
 symspgr : the symmetry operation no.   1 is the identity
 symspgr : the symmetry operation no.   2 is an inversion
 symaxes : the symmetry operation no.   3 is a 2-axis
 symplanes : the symmetry operation no.   4 is a mirror plane
 symaxes : the symmetry operation no.   5 is a 2-axis
 symplanes : the symmetry operation no.   6 is a mirror plane
 symaxes : the symmetry operation no.   7 is a 2-axis
 symplanes : the symmetry operation no.   8 is a mirror plane
 symplanes : the symmetry operation no.   9 is a mirror plane
 symaxes : the symmetry operation no.  10 is a tertiary 2-axis
 symspgr : the symmetry operation no.  11 is a -4 axis
 symaxes : the symmetry operation no.  12 is a 4-axis
 symspgr : the symmetry operation no.  13 is a -4 axis
 symaxes : the symmetry operation no.  14 is a 4-axis
 symplanes : the symmetry operation no.  15 is a mirror plane
 symaxes : the symmetry operation no.  16 is a tertiary 2-axis
 symspgr : spgroup= 123  P4/m m m   (=D4h^1)
 inkpts: Sum of    1 k point weights is    1.000000

 invars1m : enter jdtset=     8
 invars1 : treat image number     1

 symlatt : the Bravais lattice is cP (primitive cubic)
  xcart  is defined in input file
 ingeo : takes atomic coordinates from input array xcart

 symlatt : the Bravais lattice is cP (primitive cubic)

 symlatt : the Bravais lattice is cP (primitive cubic)

 symbrav : COMMENT -
  The Bravais lattice determined only from the primitive
  vectors, bravais(1)=  7, is more symmetric
  than the real one, iholohedry=  4, obtained by taking into
  account the atomic positions. Start deforming the primitive vector set.

 symlatt : the Bravais lattice is tP (primitive tetragonal)
 symspgr : the symmetry operation no.   1 is the identity
 symspgr : the symmetry operation no.   2 is an inversion
 symaxes : the symmetry operation no.   3 is a 2-axis
 symplanes : the symmetry operation no.   4 is a mirror plane
 symaxes : the symmetry operation no.   5 is a 2-axis
 symplanes : the symmetry operation no.   6 is a mirror plane
 symaxes : the symmetry operation no.   7 is a 2-axis
 symplanes : the symmetry operation no.   8 is a mirror plane
 symplanes : the symmetry operation no.   9 is a mirror plane
 symaxes : the symmetry operation no.  10 is a tertiary 2-axis
 symspgr : the symmetry operation no.  11 is a -4 axis
 symaxes : the symmetry operation no.  12 is a 4-axis
 symspgr : the symmetry operation no.  13 is a -4 axis
 symaxes : the symmetry operation no.  14 is a 4-axis
 symplanes : the symmetry operation no.  15 is a mirror plane
 symaxes : the symmetry operation no.  16 is a tertiary 2-axis
 symspgr : spgroup= 123  P4/m m m   (=D4h^1)
 inkpts: Sum of    1 k point weights is    1.000000

 invars1m : enter jdtset=     9
 invars1 : treat image number     1

 symlatt : the Bravais lattice is cP (primitive cubic)
  xcart  is defined in input file
 ingeo : takes atomic coordinates from input array xcart

 symlatt : the Bravais lattice is cP (primitive cubic)

 symlatt : the Bravais lattice is cP (primitive cubic)

 symbrav : COMMENT -
  The Bravais lattice determined only from the primitive
  vectors, bravais(1)=  7, is more symmetric
  than the real one, iholohedry=  4, obtained by taking into
  account the atomic positions. Start deforming the primitive vector set.

 symlatt : the Bravais lattice is tP (primitive tetragonal)
 symspgr : the symmetry operation no.   1 is the identity
 symspgr : the symmetry operation no.   2 is an inversion
 symaxes : the symmetry operation no.   3 is a 2-axis
 symplanes : the symmetry operation no.   4 is a mirror plane
 symaxes : the symmetry operation no.   5 is a 2-axis
 symplanes : the symmetry operation no.   6 is a mirror plane
 symaxes : the symmetry operation no.   7 is a 2-axis
 symplanes : the symmetry operation no.   8 is a mirror plane
 symplanes : the symmetry operation no.   9 is a mirror plane
 symaxes : the symmetry operation no.  10 is a tertiary 2-axis
 symspgr : the symmetry operation no.  11 is a -4 axis
 symaxes : the symmetry operation no.  12 is a 4-axis
 symspgr : the symmetry operation no.  13 is a -4 axis
 symaxes : the symmetry operation no.  14 is a 4-axis
 symplanes : the symmetry operation no.  15 is a mirror plane
 symaxes : the symmetry operation no.  16 is a tertiary 2-axis
 symspgr : spgroup= 123  P4/m m m   (=D4h^1)
 inkpts: Sum of    1 k point weights is    1.000000

 invars1m : enter jdtset=    10
 invars1 : treat image number     1

 symlatt : the Bravais lattice is cP (primitive cubic)
  xcart  is defined in input file
 ingeo : takes atomic coordinates from input array xcart

 symlatt : the Bravais lattice is cP (primitive cubic)

 symlatt : the Bravais lattice is cP (primitive cubic)

 symbrav : COMMENT -
  The Bravais lattice determined only from the primitive
  vectors, bravais(1)=  7, is more symmetric
  than the real one, iholohedry=  4, obtained by taking into
  account the atomic positions. Start deforming the primitive vector set.

 symlatt : the Bravais lattice is tP (primitive tetragonal)
 symspgr : the symmetry operation no.   1 is the identity
 symspgr : the symmetry operation no.   2 is an inversion
 symaxes : the symmetry operation no.   3 is a 2-axis
 symplanes : the symmetry operation no.   4 is a mirror plane
 symaxes : the symmetry operation no.   5 is a 2-axis
 symplanes : the symmetry operation no.   6 is a mirror plane
 symaxes : the symmetry operation no.   7 is a 2-axis
 symplanes : the symmetry operation no.   8 is a mirror plane
 symplanes : the symmetry operation no.   9 is a mirror plane
 symaxes : the symmetry operation no.  10 is a tertiary 2-axis
 symspgr : the symmetry operation no.  11 is a -4 axis
 symaxes : the symmetry operation no.  12 is a 4-axis
 symspgr : the symmetry operation no.  13 is a -4 axis
 symaxes : the symmetry operation no.  14 is a 4-axis
 symplanes : the symmetry operation no.  15 is a mirror plane
 symaxes : the symmetry operation no.  16 is a tertiary 2-axis
 symspgr : spgroup= 123  P4/m m m   (=D4h^1)
 inkpts: Sum of    1 k point weights is    1.000000

 invars1m : enter jdtset=    11
 invars1 : treat image number     1

 symlatt : the Bravais lattice is cP (primitive cubic)
  xcart  is defined in input file
 ingeo : takes atomic coordinates from input array xcart

 symlatt : the Bravais lattice is cP (primitive cubic)

 symlatt : the Bravais lattice is cP (primitive cubic)

 symbrav : COMMENT -
  The Bravais lattice determined only from the primitive
  vectors, bravais(1)=  7, is more symmetric
  than the real one, iholohedry=  4, obtained by taking into
  account the atomic positions. Start deforming the primitive vector set.

 symlatt : the Bravais lattice is tP (primitive tetragonal)
 symspgr : the symmetry operation no.   1 is the identity
 symspgr : the symmetry operation no.   2 is an inversion
 symaxes : the symmetry operation no.   3 is a 2-axis
 symplanes : the symmetry operation no.   4 is a mirror plane
 symaxes : the symmetry operation no.   5 is a 2-axis
 symplanes : the symmetry operation no.   6 is a mirror plane
 symaxes : the symmetry operation no.   7 is a 2-axis
 symplanes : the symmetry operation no.   8 is a mirror plane
 symplanes : the symmetry operation no.   9 is a mirror plane
 symaxes : the symmetry operation no.  10 is a tertiary 2-axis
 symspgr : the symmetry operation no.  11 is a -4 axis
 symaxes : the symmetry operation no.  12 is a 4-axis
 symspgr : the symmetry operation no.  13 is a -4 axis
 symaxes : the symmetry operation no.  14 is a 4-axis
 symplanes : the symmetry operation no.  15 is a mirror plane
 symaxes : the symmetry operation no.  16 is a tertiary 2-axis
 symspgr : spgroup= 123  P4/m m m   (=D4h^1)
 inkpts: Sum of    1 k point weights is    1.000000

 invars1m : enter jdtset=    12
 invars1 : treat image number     1

 symlatt : the Bravais lattice is cP (primitive cubic)
  xcart  is defined in input file
 ingeo : takes atomic coordinates from input array xcart

 symlatt : the Bravais lattice is cP (primitive cubic)

 symlatt : the Bravais lattice is cP (primitive cubic)

 symbrav : COMMENT -
  The Bravais lattice determined only from the primitive
  vectors, bravais(1)=  7, is more symmetric
  than the real one, iholohedry=  4, obtained by taking into
  account the atomic positions. Start deforming the primitive vector set.

 symlatt : the Bravais lattice is tP (primitive tetragonal)
 symspgr : the symmetry operation no.   1 is the identity
 symspgr : the symmetry operation no.   2 is an inversion
 symaxes : the symmetry operation no.   3 is a 2-axis
 symplanes : the symmetry operation no.   4 is a mirror plane
 symaxes : the symmetry operation no.   5 is a 2-axis
 symplanes : the symmetry operation no.   6 is a mirror plane
 symaxes : the symmetry operation no.   7 is a 2-axis
 symplanes : the symmetry operation no.   8 is a mirror plane
 symplanes : the symmetry operation no.   9 is a mirror plane
 symaxes : the symmetry operation no.  10 is a tertiary 2-axis
 symspgr : the symmetry operation no.  11 is a -4 axis
 symaxes : the symmetry operation no.  12 is a 4-axis
 symspgr : the symmetry operation no.  13 is a -4 axis
 symaxes : the symmetry operation no.  14 is a 4-axis
 symplanes : the symmetry operation no.  15 is a mirror plane
 symaxes : the symmetry operation no.  16 is a tertiary 2-axis
 symspgr : spgroup= 123  P4/m m m   (=D4h^1)
 inkpts: Sum of    1 k point weights is    1.000000

 invars1m : enter jdtset=    13
 invars1 : treat image number     1

 symlatt : the Bravais lattice is cP (primitive cubic)
  xcart  is defined in input file
 ingeo : takes atomic coordinates from input array xcart

 symlatt : the Bravais lattice is cP (primitive cubic)

 symlatt : the Bravais lattice is cP (primitive cubic)

 symbrav : COMMENT -
  The Bravais lattice determined only from the primitive
  vectors, bravais(1)=  7, is more symmetric
  than the real one, iholohedry=  4, obtained by taking into
  account the atomic positions. Start deforming the primitive vector set.

 symlatt : the Bravais lattice is tP (primitive tetragonal)
 symspgr : the symmetry operation no.   1 is the identity
 symspgr : the symmetry operation no.   2 is an inversion
 symaxes : the symmetry operation no.   3 is a 2-axis
 symplanes : the symmetry operation no.   4 is a mirror plane
 symaxes : the symmetry operation no.   5 is a 2-axis
 symplanes : the symmetry operation no.   6 is a mirror plane
 symaxes : the symmetry operation no.   7 is a 2-axis
 symplanes : the symmetry operation no.   8 is a mirror plane
 symplanes : the symmetry operation no.   9 is a mirror plane
 symaxes : the symmetry operation no.  10 is a tertiary 2-axis
 symspgr : the symmetry operation no.  11 is a -4 axis
 symaxes : the symmetry operation no.  12 is a 4-axis
 symspgr : the symmetry operation no.  13 is a -4 axis
 symaxes : the symmetry operation no.  14 is a 4-axis
 symplanes : the symmetry operation no.  15 is a mirror plane
 symaxes : the symmetry operation no.  16 is a tertiary 2-axis
 symspgr : spgroup= 123  P4/m m m   (=D4h^1)
 inkpts: Sum of    1 k point weights is    1.000000

 invars1m : enter jdtset=    14
 invars1 : treat image number     1

 symlatt : the Bravais lattice is cP (primitive cubic)
  xcart  is defined in input file
 ingeo : takes atomic coordinates from input array xcart

 symlatt : the Bravais lattice is cP (primitive cubic)

 symlatt : the Bravais lattice is cP (primitive cubic)

 symbrav : COMMENT -
  The Bravais lattice determined only from the primitive
  vectors, bravais(1)=  7, is more symmetric
  than the real one, iholohedry=  4, obtained by taking into
  account the atomic positions. Start deforming the primitive vector set.

 symlatt : the Bravais lattice is tP (primitive tetragonal)
 symspgr : the symmetry operation no.   1 is the identity
 symspgr : the symmetry operation no.   2 is an inversion
 symaxes : the symmetry operation no.   3 is a 2-axis
 symplanes : the symmetry operation no.   4 is a mirror plane
 symaxes : the symmetry operation no.   5 is a 2-axis
 symplanes : the symmetry operation no.   6 is a mirror plane
 symaxes : the symmetry operation no.   7 is a 2-axis
 symplanes : the symmetry operation no.   8 is a mirror plane
 symplanes : the symmetry operation no.   9 is a mirror plane
 symaxes : the symmetry operation no.  10 is a tertiary 2-axis
 symspgr : the symmetry operation no.  11 is a -4 axis
 symaxes : the symmetry operation no.  12 is a 4-axis
 symspgr : the symmetry operation no.  13 is a -4 axis
 symaxes : the symmetry operation no.  14 is a 4-axis
 symplanes : the symmetry operation no.  15 is a mirror plane
 symaxes : the symmetry operation no.  16 is a tertiary 2-axis
 symspgr : spgroup= 123  P4/m m m   (=D4h^1)
 inkpts: Sum of    1 k point weights is    1.000000

 invars1m : enter jdtset=    15
 invars1 : treat image number     1

 symlatt : the Bravais lattice is cP (primitive cubic)
  xcart  is defined in input file
 ingeo : takes atomic coordinates from input array xcart

 symlatt : the Bravais lattice is cP (primitive cubic)

 symlatt : the Bravais lattice is cP (primitive cubic)

 symbrav : COMMENT -
  The Bravais lattice determined only from the primitive
  vectors, bravais(1)=  7, is more symmetric
  than the real one, iholohedry=  4, obtained by taking into
  account the atomic positions. Start deforming the primitive vector set.

 symlatt : the Bravais lattice is tP (primitive tetragonal)
 symspgr : the symmetry operation no.   1 is the identity
 symspgr : the symmetry operation no.   2 is an inversion
 symaxes : the symmetry operation no.   3 is a 2-axis
 symplanes : the symmetry operation no.   4 is a mirror plane
 symaxes : the symmetry operation no.   5 is a 2-axis
 symplanes : the symmetry operation no.   6 is a mirror plane
 symaxes : the symmetry operation no.   7 is a 2-axis
 symplanes : the symmetry operation no.   8 is a mirror plane
 symplanes : the symmetry operation no.   9 is a mirror plane
 symaxes : the symmetry operation no.  10 is a tertiary 2-axis
 symspgr : the symmetry operation no.  11 is a -4 axis
 symaxes : the symmetry operation no.  12 is a 4-axis
 symspgr : the symmetry operation no.  13 is a -4 axis
 symaxes : the symmetry operation no.  14 is a 4-axis
 symplanes : the symmetry operation no.  15 is a mirror plane
 symaxes : the symmetry operation no.  16 is a tertiary 2-axis
 symspgr : spgroup= 123  P4/m m m   (=D4h^1)
 inkpts: Sum of    1 k point weights is    1.000000

 invars1m : enter jdtset=    16
 invars1 : treat image number     1

 symlatt : the Bravais lattice is cP (primitive cubic)
  xcart  is defined in input file
 ingeo : takes atomic coordinates from input array xcart

 symlatt : the Bravais lattice is cP (primitive cubic)

 symlatt : the Bravais lattice is cP (primitive cubic)

 symbrav : COMMENT -
  The Bravais lattice determined only from the primitive
  vectors, bravais(1)=  7, is more symmetric
  than the real one, iholohedry=  4, obtained by taking into
  account the atomic positions. Start deforming the primitive vector set.

 symlatt : the Bravais lattice is tP (primitive tetragonal)
 symspgr : the symmetry operation no.   1 is the identity
 symspgr : the symmetry operation no.   2 is an inversion
 symaxes : the symmetry operation no.   3 is a 2-axis
 symplanes : the symmetry operation no.   4 is a mirror plane
 symaxes : the symmetry operation no.   5 is a 2-axis
 symplanes : the symmetry operation no.   6 is a mirror plane
 symaxes : the symmetry operation no.   7 is a 2-axis
 symplanes : the symmetry operation no.   8 is a mirror plane
 symplanes : the symmetry operation no.   9 is a mirror plane
 symaxes : the symmetry operation no.  10 is a tertiary 2-axis
 symspgr : the symmetry operation no.  11 is a -4 axis
 symaxes : the symmetry operation no.  12 is a 4-axis
 symspgr : the symmetry operation no.  13 is a -4 axis
 symaxes : the symmetry operation no.  14 is a 4-axis
 symplanes : the symmetry operation no.  15 is a mirror plane
 symaxes : the symmetry operation no.  16 is a tertiary 2-axis
 symspgr : spgroup= 123  P4/m m m   (=D4h^1)
 inkpts: Sum of    1 k point weights is    1.000000

 invars1m : enter jdtset=    17
 invars1 : treat image number     1

 symlatt : the Bravais lattice is cP (primitive cubic)
  xcart  is defined in input file
 ingeo : takes atomic coordinates from input array xcart

 symlatt : the Bravais lattice is cP (primitive cubic)

 symlatt : the Bravais lattice is cP (primitive cubic)

 symbrav : COMMENT -
  The Bravais lattice determined only from the primitive
  vectors, bravais(1)=  7, is more symmetric
  than the real one, iholohedry=  4, obtained by taking into
  account the atomic positions. Start deforming the primitive vector set.

 symlatt : the Bravais lattice is tP (primitive tetragonal)
 symspgr : the symmetry operation no.   1 is the identity
 symspgr : the symmetry operation no.   2 is an inversion
 symaxes : the symmetry operation no.   3 is a 2-axis
 symplanes : the symmetry operation no.   4 is a mirror plane
 symaxes : the symmetry operation no.   5 is a 2-axis
 symplanes : the symmetry operation no.   6 is a mirror plane
 symaxes : the symmetry operation no.   7 is a 2-axis
 symplanes : the symmetry operation no.   8 is a mirror plane
 symplanes : the symmetry operation no.   9 is a mirror plane
 symaxes : the symmetry operation no.  10 is a tertiary 2-axis
 symspgr : the symmetry operation no.  11 is a -4 axis
 symaxes : the symmetry operation no.  12 is a 4-axis
 symspgr : the symmetry operation no.  13 is a -4 axis
 symaxes : the symmetry operation no.  14 is a 4-axis
 symplanes : the symmetry operation no.  15 is a mirror plane
 symaxes : the symmetry operation no.  16 is a tertiary 2-axis
 symspgr : spgroup= 123  P4/m m m   (=D4h^1)
 inkpts: Sum of    1 k point weights is    1.000000

 invars1m : enter jdtset=    18
 invars1 : treat image number     1

 symlatt : the Bravais lattice is cP (primitive cubic)
  xcart  is defined in input file
 ingeo : takes atomic coordinates from input array xcart

 symlatt : the Bravais lattice is cP (primitive cubic)

 symlatt : the Bravais lattice is cP (primitive cubic)

 symbrav : COMMENT -
  The Bravais lattice determined only from the primitive
  vectors, bravais(1)=  7, is more symmetric
  than the real one, iholohedry=  4, obtained by taking into
  account the atomic positions. Start deforming the primitive vector set.

 symlatt : the Bravais lattice is tP (primitive tetragonal)
 symspgr : the symmetry operation no.   1 is the identity
 symspgr : the symmetry operation no.   2 is an inversion
 symaxes : the symmetry operation no.   3 is a 2-axis
 symplanes : the symmetry operation no.   4 is a mirror plane
 symaxes : the symmetry operation no.   5 is a 2-axis
 symplanes : the symmetry operation no.   6 is a mirror plane
 symaxes : the symmetry operation no.   7 is a 2-axis
 symplanes : the symmetry operation no.   8 is a mirror plane
 symplanes : the symmetry operation no.   9 is a mirror plane
 symaxes : the symmetry operation no.  10 is a tertiary 2-axis
 symspgr : the symmetry operation no.  11 is a -4 axis
 symaxes : the symmetry operation no.  12 is a 4-axis
 symspgr : the symmetry operation no.  13 is a -4 axis
 symaxes : the symmetry operation no.  14 is a 4-axis
 symplanes : the symmetry operation no.  15 is a mirror plane
 symaxes : the symmetry operation no.  16 is a tertiary 2-axis
 symspgr : spgroup= 123  P4/m m m   (=D4h^1)
 inkpts: Sum of    1 k point weights is    1.000000

 invars1m : enter jdtset=    19
 invars1 : treat image number     1

 symlatt : the Bravais lattice is cP (primitive cubic)
  xcart  is defined in input file
 ingeo : takes atomic coordinates from input array xcart

 symlatt : the Bravais lattice is cP (primitive cubic)

 symlatt : the Bravais lattice is cP (primitive cubic)

 symbrav : COMMENT -
  The Bravais lattice determined only from the primitive
  vectors, bravais(1)=  7, is more symmetric
  than the real one, iholohedry=  4, obtained by taking into
  account the atomic positions. Start deforming the primitive vector set.

 symlatt : the Bravais lattice is tP (primitive tetragonal)
 symspgr : the symmetry operation no.   1 is the identity
 symspgr : the symmetry operation no.   2 is an inversion
 symaxes : the symmetry operation no.   3 is a 2-axis
 symplanes : the symmetry operation no.   4 is a mirror plane
 symaxes : the symmetry operation no.   5 is a 2-axis
 symplanes : the symmetry operation no.   6 is a mirror plane
 symaxes : the symmetry operation no.   7 is a 2-axis
 symplanes : the symmetry operation no.   8 is a mirror plane
 symplanes : the symmetry operation no.   9 is a mirror plane
 symaxes : the symmetry operation no.  10 is a tertiary 2-axis
 symspgr : the symmetry operation no.  11 is a -4 axis
 symaxes : the symmetry operation no.  12 is a 4-axis
 symspgr : the symmetry operation no.  13 is a -4 axis
 symaxes : the symmetry operation no.  14 is a 4-axis
 symplanes : the symmetry operation no.  15 is a mirror plane
 symaxes : the symmetry operation no.  16 is a tertiary 2-axis
 symspgr : spgroup= 123  P4/m m m   (=D4h^1)
 inkpts: Sum of    1 k point weights is    1.000000

 invars1m : enter jdtset=    20
 invars1 : treat image number     1

 symlatt : the Bravais lattice is cP (primitive cubic)
  xcart  is defined in input file
 ingeo : takes atomic coordinates from input array xcart

 symlatt : the Bravais lattice is cP (primitive cubic)

 symlatt : the Bravais lattice is cP (primitive cubic)

 symbrav : COMMENT -
  The Bravais lattice determined only from the primitive
  vectors, bravais(1)=  7, is more symmetric
  than the real one, iholohedry=  4, obtained by taking into
  account the atomic positions. Start deforming the primitive vector set.

 symlatt : the Bravais lattice is tP (primitive tetragonal)
 symspgr : the symmetry operation no.   1 is the identity
 symspgr : the symmetry operation no.   2 is an inversion
 symaxes : the symmetry operation no.   3 is a 2-axis
 symplanes : the symmetry operation no.   4 is a mirror plane
 symaxes : the symmetry operation no.   5 is a 2-axis
 symplanes : the symmetry operation no.   6 is a mirror plane
 symaxes : the symmetry operation no.   7 is a 2-axis
 symplanes : the symmetry operation no.   8 is a mirror plane
 symplanes : the symmetry operation no.   9 is a mirror plane
 symaxes : the symmetry operation no.  10 is a tertiary 2-axis
 symspgr : the symmetry operation no.  11 is a -4 axis
 symaxes : the symmetry operation no.  12 is a 4-axis
 symspgr : the symmetry operation no.  13 is a -4 axis
 symaxes : the symmetry operation no.  14 is a 4-axis
 symplanes : the symmetry operation no.  15 is a mirror plane
 symaxes : the symmetry operation no.  16 is a tertiary 2-axis
 symspgr : spgroup= 123  P4/m m m   (=D4h^1)
 inkpts: Sum of    1 k point weights is    1.000000

 invars1m : enter jdtset=    21
 invars1 : treat image number     1

 symlatt : the Bravais lattice is cP (primitive cubic)
  xcart  is defined in input file
 ingeo : takes atomic coordinates from input array xcart

 symlatt : the Bravais lattice is cP (primitive cubic)

 symlatt : the Bravais lattice is cP (primitive cubic)

 symbrav : COMMENT -
  The Bravais lattice determined only from the primitive
  vectors, bravais(1)=  7, is more symmetric
  than the real one, iholohedry=  4, obtained by taking into
  account the atomic positions. Start deforming the primitive vector set.

 symlatt : the Bravais lattice is tP (primitive tetragonal)
 symspgr : the symmetry operation no.   1 is the identity
 symspgr : the symmetry operation no.   2 is an inversion
 symaxes : the symmetry operation no.   3 is a 2-axis
 symplanes : the symmetry operation no.   4 is a mirror plane
 symaxes : the symmetry operation no.   5 is a 2-axis
 symplanes : the symmetry operation no.   6 is a mirror plane
 symaxes : the symmetry operation no.   7 is a 2-axis
 symplanes : the symmetry operation no.   8 is a mirror plane
 symplanes : the symmetry operation no.   9 is a mirror plane
 symaxes : the symmetry operation no.  10 is a tertiary 2-axis
 symspgr : the symmetry operation no.  11 is a -4 axis
 symaxes : the symmetry operation no.  12 is a 4-axis
 symspgr : the symmetry operation no.  13 is a -4 axis
 symaxes : the symmetry operation no.  14 is a 4-axis
 symplanes : the symmetry operation no.  15 is a mirror plane
 symaxes : the symmetry operation no.  16 is a tertiary 2-axis
 symspgr : spgroup= 123  P4/m m m   (=D4h^1)
 inkpts: Sum of    1 k point weights is    1.000000
 inkpts: Sum of    1 k point weights is    1.000000
  dtset%nelect=   2.0000000000000000     
 chkneu : initialized the occupation numbers for occopt=    1
    spin-unpolarized case :
  2.00
 inkpts: Sum of    1 k point weights is    1.000000
  dtset%nelect=   2.0000000000000000     
 chkneu : initialized the occupation numbers for occopt=    1
    spin-unpolarized case :
  2.00
 inkpts: Sum of    1 k point weights is    1.000000
  dtset%nelect=   2.0000000000000000     
 chkneu : initialized the occupation numbers for occopt=    1
    spin-unpolarized case :
  2.00
 inkpts: Sum of    1 k point weights is    1.000000
  dtset%nelect=   2.0000000000000000     
 chkneu : initialized the occupation numbers for occopt=    1
    spin-unpolarized case :
  2.00
 inkpts: Sum of    1 k point weights is    1.000000
  dtset%nelect=   2.0000000000000000     
 chkneu : initialized the occupation numbers for occopt=    1
    spin-unpolarized case :
  2.00
 inkpts: Sum of    1 k point weights is    1.000000
  dtset%nelect=   2.0000000000000000     
 chkneu : initialized the occupation numbers for occopt=    1
    spin-unpolarized case :
  2.00
 inkpts: Sum of    1 k point weights is    1.000000
  dtset%nelect=   2.0000000000000000     
 chkneu : initialized the occupation numbers for occopt=    1
    spin-unpolarized case :
  2.00
 inkpts: Sum of    1 k point weights is    1.000000
  dtset%nelect=   2.0000000000000000     
 chkneu : initialized the occupation numbers for occopt=    1
    spin-unpolarized case :
  2.00
 inkpts: Sum of    1 k point weights is    1.000000
  dtset%nelect=   2.0000000000000000     
 chkneu : initialized the occupation numbers for occopt=    1
    spin-unpolarized case :
  2.00
 inkpts: Sum of    1 k point weights is    1.000000
  dtset%nelect=   2.0000000000000000     
 chkneu : initialized the occupation numbers for occopt=    1
    spin-unpolarized case :
  2.00
 inkpts: Sum of    1 k point weights is    1.000000
  dtset%nelect=   2.0000000000000000     
 chkneu : initialized the occupation numbers for occopt=    1
    spin-unpolarized case :
  2.00
 inkpts: Sum of    1 k point weights is    1.000000
  dtset%nelect=   2.0000000000000000     
 chkneu : initialized the occupation numbers for occopt=    1
    spin-unpolarized case :
  2.00
 inkpts: Sum of    1 k point weights is    1.000000
  dtset%nelect=   2.0000000000000000     
 chkneu : initialized the occupation numbers for occopt=    1
    spin-unpolarized case :
  2.00
 inkpts: Sum of    1 k point weights is    1.000000
  dtset%nelect=   2.0000000000000000     
 chkneu : initialized the occupation numbers for occopt=    1
    spin-unpolarized case :
  2.00
 inkpts: Sum of    1 k point weights is    1.000000
  dtset%nelect=   2.0000000000000000     
 chkneu : initialized the occupation numbers for occopt=    1
    spin-unpolarized case :
  2.00
 inkpts: Sum of    1 k point weights is    1.000000
  dtset%nelect=   2.0000000000000000     
 chkneu : initialized the occupation numbers for occopt=    1
    spin-unpolarized case :
  2.00
 inkpts: Sum of    1 k point weights is    1.000000
  dtset%nelect=   2.0000000000000000     
 chkneu : initialized the occupation numbers for occopt=    1
    spin-unpolarized case :
  2.00
 inkpts: Sum of    1 k point weights is    1.000000
  dtset%nelect=   2.0000000000000000     
 chkneu : initialized the occupation numbers for occopt=    1
    spin-unpolarized case :
  2.00
 inkpts: Sum of    1 k point weights is    1.000000
  dtset%nelect=   2.0000000000000000     
 chkneu : initialized the occupation numbers for occopt=    1
    spin-unpolarized case :
  2.00
 inkpts: Sum of    1 k point weights is    1.000000
  dtset%nelect=   2.0000000000000000     
 chkneu : initialized the occupation numbers for occopt=    1
    spin-unpolarized case :
  2.00
 inkpts: Sum of    1 k point weights is    1.000000
  dtset%nelect=   2.0000000000000000     
 chkneu : initialized the occupation numbers for occopt=    1
    spin-unpolarized case :
  2.00
  mpi_setup : enter 
 mpi_setup1: mkmem  undefined in the input file. Use default mkmem  = nkpt
 mpi_setup1: With nkpt_me=    1 and mkmem  =     1, ground state wf handled in core.
 mpi_setup1: mkqmem undefined in the input file. Use default mkqmem = nkpt
 mpi_setup1: With nkpt_me=    1 and mkqmem =     1, ground state wf handled in core.
 mpi_setup1: mk1mem undefined in the input file. Use default mk1mem = nkpt
 mpi_setup1: With nkpt_me=    1 and mk1mem =     1, ground state wf handled in core.

 getng.F90:200:WARNING
   The second and third dimension of the FFT grid,    0    0  were imposed to be multiple of the number of processors for the FFT,    1
 For input ecut=  1.000000E+01 best grid ngfft=      30      30      30
       max ecut=  1.110330E+01

 ==== FFT mesh ====
  FFT mesh divisions ........................    30   30   30
  Augmented FFT divisions ...................    31   31   30
  FFT algorithm .............................   112
  FFT cache size ............................    16
 getmpw: optimal value of mpw=     752
 mpi_setup1: mkmem  undefined in the input file. Use default mkmem  = nkpt
 mpi_setup1: With nkpt_me=    1 and mkmem  =     1, ground state wf handled in core.
 mpi_setup1: mkqmem undefined in the input file. Use default mkqmem = nkpt
 mpi_setup1: With nkpt_me=    1 and mkqmem =     1, ground state wf handled in core.
 mpi_setup1: mk1mem undefined in the input file. Use default mk1mem = nkpt
 mpi_setup1: With nkpt_me=    1 and mk1mem =     1, ground state wf handled in core.
 For input ecut=  1.000000E+01 best grid ngfft=      30      30      30
       max ecut=  1.110330E+01

 ==== FFT mesh ====
  FFT mesh divisions ........................    30   30   30
  Augmented FFT divisions ...................    31   31   30
  FFT algorithm .............................   112
  FFT cache size ............................    16
 getmpw: optimal value of mpw=     752
 mpi_setup1: mkmem  undefined in the input file. Use default mkmem  = nkpt
 mpi_setup1: With nkpt_me=    1 and mkmem  =     1, ground state wf handled in core.
 mpi_setup1: mkqmem undefined in the input file. Use default mkqmem = nkpt
 mpi_setup1: With nkpt_me=    1 and mkqmem =     1, ground state wf handled in core.
 mpi_setup1: mk1mem undefined in the input file. Use default mk1mem = nkpt
 mpi_setup1: With nkpt_me=    1 and mk1mem =     1, ground state wf handled in core.
 For input ecut=  1.000000E+01 best grid ngfft=      30      30      30
       max ecut=  1.110330E+01

 ==== FFT mesh ====
  FFT mesh divisions ........................    30   30   30
  Augmented FFT divisions ...................    31   31   30
  FFT algorithm .............................   112
  FFT cache size ............................    16
 getmpw: optimal value of mpw=     752
 mpi_setup1: mkmem  undefined in the input file. Use default mkmem  = nkpt
 mpi_setup1: With nkpt_me=    1 and mkmem  =     1, ground state wf handled in core.
 mpi_setup1: mkqmem undefined in the input file. Use default mkqmem = nkpt
 mpi_setup1: With nkpt_me=    1 and mkqmem =     1, ground state wf handled in core.
 mpi_setup1: mk1mem undefined in the input file. Use default mk1mem = nkpt
 mpi_setup1: With nkpt_me=    1 and mk1mem =     1, ground state wf handled in core.
 For input ecut=  1.000000E+01 best grid ngfft=      30      30      30
       max ecut=  1.110330E+01

 ==== FFT mesh ====
  FFT mesh divisions ........................    30   30   30
  Augmented FFT divisions ...................    31   31   30
  FFT algorithm .............................   112
  FFT cache size ............................    16
 getmpw: optimal value of mpw=     752
 mpi_setup1: mkmem  undefined in the input file. Use default mkmem  = nkpt
 mpi_setup1: With nkpt_me=    1 and mkmem  =     1, ground state wf handled in core.
 mpi_setup1: mkqmem undefined in the input file. Use default mkqmem = nkpt
 mpi_setup1: With nkpt_me=    1 and mkqmem =     1, ground state wf handled in core.
 mpi_setup1: mk1mem undefined in the input file. Use default mk1mem = nkpt
 mpi_setup1: With nkpt_me=    1 and mk1mem =     1, ground state wf handled in core.
 For input ecut=  1.000000E+01 best grid ngfft=      30      30      30
       max ecut=  1.110330E+01

 ==== FFT mesh ====
  FFT mesh divisions ........................    30   30   30
  Augmented FFT divisions ...................    31   31   30
  FFT algorithm .............................   112
  FFT cache size ............................    16
 getmpw: optimal value of mpw=     752
 mpi_setup1: mkmem  undefined in the input file. Use default mkmem  = nkpt
 mpi_setup1: With nkpt_me=    1 and mkmem  =     1, ground state wf handled in core.
 mpi_setup1: mkqmem undefined in the input file. Use default mkqmem = nkpt
 mpi_setup1: With nkpt_me=    1 and mkqmem =     1, ground state wf handled in core.
 mpi_setup1: mk1mem undefined in the input file. Use default mk1mem = nkpt
 mpi_setup1: With nkpt_me=    1 and mk1mem =     1, ground state wf handled in core.
 For input ecut=  1.000000E+01 best grid ngfft=      30      30      30
       max ecut=  1.110330E+01

 ==== FFT mesh ====
  FFT mesh divisions ........................    30   30   30
  Augmented FFT divisions ...................    31   31   30
  FFT algorithm .............................   112
  FFT cache size ............................    16
 getmpw: optimal value of mpw=     752
 mpi_setup1: mkmem  undefined in the input file. Use default mkmem  = nkpt
 mpi_setup1: With nkpt_me=    1 and mkmem  =     1, ground state wf handled in core.
 mpi_setup1: mkqmem undefined in the input file. Use default mkqmem = nkpt
 mpi_setup1: With nkpt_me=    1 and mkqmem =     1, ground state wf handled in core.
 mpi_setup1: mk1mem undefined in the input file. Use default mk1mem = nkpt
 mpi_setup1: With nkpt_me=    1 and mk1mem =     1, ground state wf handled in core.
 For input ecut=  1.000000E+01 best grid ngfft=      30      30      30
       max ecut=  1.110330E+01

 ==== FFT mesh ====
  FFT mesh divisions ........................    30   30   30
  Augmented FFT divisions ...................    31   31   30
  FFT algorithm .............................   112
  FFT cache size ............................    16
 getmpw: optimal value of mpw=     752
 mpi_setup1: mkmem  undefined in the input file. Use default mkmem  = nkpt
 mpi_setup1: With nkpt_me=    1 and mkmem  =     1, ground state wf handled in core.
 mpi_setup1: mkqmem undefined in the input file. Use default mkqmem = nkpt
 mpi_setup1: With nkpt_me=    1 and mkqmem =     1, ground state wf handled in core.
 mpi_setup1: mk1mem undefined in the input file. Use default mk1mem = nkpt
 mpi_setup1: With nkpt_me=    1 and mk1mem =     1, ground state wf handled in core.
 For input ecut=  1.000000E+01 best grid ngfft=      30      30      30
       max ecut=  1.110330E+01

 ==== FFT mesh ====
  FFT mesh divisions ........................    30   30   30
  Augmented FFT divisions ...................    31   31   30
  FFT algorithm .............................   112
  FFT cache size ............................    16
 getmpw: optimal value of mpw=     752
 mpi_setup1: mkmem  undefined in the input file. Use default mkmem  = nkpt
 mpi_setup1: With nkpt_me=    1 and mkmem  =     1, ground state wf handled in core.
 mpi_setup1: mkqmem undefined in the input file. Use default mkqmem = nkpt
 mpi_setup1: With nkpt_me=    1 and mkqmem =     1, ground state wf handled in core.
 mpi_setup1: mk1mem undefined in the input file. Use default mk1mem = nkpt
 mpi_setup1: With nkpt_me=    1 and mk1mem =     1, ground state wf handled in core.
 For input ecut=  1.000000E+01 best grid ngfft=      30      30      30
       max ecut=  1.110330E+01

 ==== FFT mesh ====
  FFT mesh divisions ........................    30   30   30
  Augmented FFT divisions ...................    31   31   30
  FFT algorithm .............................   112
  FFT cache size ............................    16
 getmpw: optimal value of mpw=     752
 mpi_setup1: mkmem  undefined in the input file. Use default mkmem  = nkpt
 mpi_setup1: With nkpt_me=    1 and mkmem  =     1, ground state wf handled in core.
 mpi_setup1: mkqmem undefined in the input file. Use default mkqmem = nkpt
 mpi_setup1: With nkpt_me=    1 and mkqmem =     1, ground state wf handled in core.
 mpi_setup1: mk1mem undefined in the input file. Use default mk1mem = nkpt
 mpi_setup1: With nkpt_me=    1 and mk1mem =     1, ground state wf handled in core.
 For input ecut=  1.000000E+01 best grid ngfft=      30      30      30
       max ecut=  1.110330E+01

 ==== FFT mesh ====
  FFT mesh divisions ........................    30   30   30
  Augmented FFT divisions ...................    31   31   30
  FFT algorithm .............................   112
  FFT cache size ............................    16
 getmpw: optimal value of mpw=     752
 mpi_setup1: mkmem  undefined in the input file. Use default mkmem  = nkpt
 mpi_setup1: With nkpt_me=    1 and mkmem  =     1, ground state wf handled in core.
 mpi_setup1: mkqmem undefined in the input file. Use default mkqmem = nkpt
 mpi_setup1: With nkpt_me=    1 and mkqmem =     1, ground state wf handled in core.
 mpi_setup1: mk1mem undefined in the input file. Use default mk1mem = nkpt
 mpi_setup1: With nkpt_me=    1 and mk1mem =     1, ground state wf handled in core.
 For input ecut=  1.000000E+01 best grid ngfft=      30      30      30
       max ecut=  1.110330E+01

 ==== FFT mesh ====
  FFT mesh divisions ........................    30   30   30
  Augmented FFT divisions ...................    31   31   30
  FFT algorithm .............................   112
  FFT cache size ............................    16
 getmpw: optimal value of mpw=     752
 mpi_setup1: mkmem  undefined in the input file. Use default mkmem  = nkpt
 mpi_setup1: With nkpt_me=    1 and mkmem  =     1, ground state wf handled in core.
 mpi_setup1: mkqmem undefined in the input file. Use default mkqmem = nkpt
 mpi_setup1: With nkpt_me=    1 and mkqmem =     1, ground state wf handled in core.
 mpi_setup1: mk1mem undefined in the input file. Use default mk1mem = nkpt
 mpi_setup1: With nkpt_me=    1 and mk1mem =     1, ground state wf handled in core.
 For input ecut=  1.000000E+01 best grid ngfft=      30      30      30
       max ecut=  1.110330E+01

 ==== FFT mesh ====
  FFT mesh divisions ........................    30   30   30
  Augmented FFT divisions ...................    31   31   30
  FFT algorithm .............................   112
  FFT cache size ............................    16
 getmpw: optimal value of mpw=     752
 mpi_setup1: mkmem  undefined in the input file. Use default mkmem  = nkpt
 mpi_setup1: With nkpt_me=    1 and mkmem  =     1, ground state wf handled in core.
 mpi_setup1: mkqmem undefined in the input file. Use default mkqmem = nkpt
 mpi_setup1: With nkpt_me=    1 and mkqmem =     1, ground state wf handled in core.
 mpi_setup1: mk1mem undefined in the input file. Use default mk1mem = nkpt
 mpi_setup1: With nkpt_me=    1 and mk1mem =     1, ground state wf handled in core.
 For input ecut=  1.000000E+01 best grid ngfft=      30      30      30
       max ecut=  1.110330E+01

 ==== FFT mesh ====
  FFT mesh divisions ........................    30   30   30
  Augmented FFT divisions ...................    31   31   30
  FFT algorithm .............................   112
  FFT cache size ............................    16
 getmpw: optimal value of mpw=     752
 mpi_setup1: mkmem  undefined in the input file. Use default mkmem  = nkpt
 mpi_setup1: With nkpt_me=    1 and mkmem  =     1, ground state wf handled in core.
 mpi_setup1: mkqmem undefined in the input file. Use default mkqmem = nkpt
 mpi_setup1: With nkpt_me=    1 and mkqmem =     1, ground state wf handled in core.
 mpi_setup1: mk1mem undefined in the input file. Use default mk1mem = nkpt
 mpi_setup1: With nkpt_me=    1 and mk1mem =     1, ground state wf handled in core.
 For input ecut=  1.000000E+01 best grid ngfft=      30      30      30
       max ecut=  1.110330E+01

 ==== FFT mesh ====
  FFT mesh divisions ........................    30   30   30
  Augmented FFT divisions ...................    31   31   30
  FFT algorithm .............................   112
  FFT cache size ............................    16
 getmpw: optimal value of mpw=     752
 mpi_setup1: mkmem  undefined in the input file. Use default mkmem  = nkpt
 mpi_setup1: With nkpt_me=    1 and mkmem  =     1, ground state wf handled in core.
 mpi_setup1: mkqmem undefined in the input file. Use default mkqmem = nkpt
 mpi_setup1: With nkpt_me=    1 and mkqmem =     1, ground state wf handled in core.
 mpi_setup1: mk1mem undefined in the input file. Use default mk1mem = nkpt
 mpi_setup1: With nkpt_me=    1 and mk1mem =     1, ground state wf handled in core.
 For input ecut=  1.000000E+01 best grid ngfft=      30      30      30
       max ecut=  1.110330E+01

 ==== FFT mesh ====
  FFT mesh divisions ........................    30   30   30
  Augmented FFT divisions ...................    31   31   30
  FFT algorithm .............................   112
  FFT cache size ............................    16
 getmpw: optimal value of mpw=     752
 mpi_setup1: mkmem  undefined in the input file. Use default mkmem  = nkpt
 mpi_setup1: With nkpt_me=    1 and mkmem  =     1, ground state wf handled in core.
 mpi_setup1: mkqmem undefined in the input file. Use default mkqmem = nkpt
 mpi_setup1: With nkpt_me=    1 and mkqmem =     1, ground state wf handled in core.
 mpi_setup1: mk1mem undefined in the input file. Use default mk1mem = nkpt
 mpi_setup1: With nkpt_me=    1 and mk1mem =     1, ground state wf handled in core.
 For input ecut=  1.000000E+01 best grid ngfft=      30      30      30
       max ecut=  1.110330E+01

 ==== FFT mesh ====
  FFT mesh divisions ........................    30   30   30
  Augmented FFT divisions ...................    31   31   30
  FFT algorithm .............................   112
  FFT cache size ............................    16
 getmpw: optimal value of mpw=     752
 mpi_setup1: mkmem  undefined in the input file. Use default mkmem  = nkpt
 mpi_setup1: With nkpt_me=    1 and mkmem  =     1, ground state wf handled in core.
 mpi_setup1: mkqmem undefined in the input file. Use default mkqmem = nkpt
 mpi_setup1: With nkpt_me=    1 and mkqmem =     1, ground state wf handled in core.
 mpi_setup1: mk1mem undefined in the input file. Use default mk1mem = nkpt
 mpi_setup1: With nkpt_me=    1 and mk1mem =     1, ground state wf handled in core.
 For input ecut=  1.000000E+01 best grid ngfft=      30      30      30
       max ecut=  1.110330E+01

 ==== FFT mesh ====
  FFT mesh divisions ........................    30   30   30
  Augmented FFT divisions ...................    31   31   30
  FFT algorithm .............................   112
  FFT cache size ............................    16
 getmpw: optimal value of mpw=     752
 mpi_setup1: mkmem  undefined in the input file. Use default mkmem  = nkpt
 mpi_setup1: With nkpt_me=    1 and mkmem  =     1, ground state wf handled in core.
 mpi_setup1: mkqmem undefined in the input file. Use default mkqmem = nkpt
 mpi_setup1: With nkpt_me=    1 and mkqmem =     1, ground state wf handled in core.
 mpi_setup1: mk1mem undefined in the input file. Use default mk1mem = nkpt
 mpi_setup1: With nkpt_me=    1 and mk1mem =     1, ground state wf handled in core.
 For input ecut=  1.000000E+01 best grid ngfft=      30      30      30
       max ecut=  1.110330E+01

 ==== FFT mesh ====
  FFT mesh divisions ........................    30   30   30
  Augmented FFT divisions ...................    31   31   30
  FFT algorithm .............................   112
  FFT cache size ............................    16
 getmpw: optimal value of mpw=     752
 mpi_setup1: mkmem  undefined in the input file. Use default mkmem  = nkpt
 mpi_setup1: With nkpt_me=    1 and mkmem  =     1, ground state wf handled in core.
 mpi_setup1: mkqmem undefined in the input file. Use default mkqmem = nkpt
 mpi_setup1: With nkpt_me=    1 and mkqmem =     1, ground state wf handled in core.
 mpi_setup1: mk1mem undefined in the input file. Use default mk1mem = nkpt
 mpi_setup1: With nkpt_me=    1 and mk1mem =     1, ground state wf handled in core.
 For input ecut=  1.000000E+01 best grid ngfft=      30      30      30
       max ecut=  1.110330E+01

 ==== FFT mesh ====
  FFT mesh divisions ........................    30   30   30
  Augmented FFT divisions ...................    31   31   30
  FFT algorithm .............................   112
  FFT cache size ............................    16
 getmpw: optimal value of mpw=     752
 mpi_setup1: mkmem  undefined in the input file. Use default mkmem  = nkpt
 mpi_setup1: With nkpt_me=    1 and mkmem  =     1, ground state wf handled in core.
 mpi_setup1: mkqmem undefined in the input file. Use default mkqmem = nkpt
 mpi_setup1: With nkpt_me=    1 and mkqmem =     1, ground state wf handled in core.
 mpi_setup1: mk1mem undefined in the input file. Use default mk1mem = nkpt
 mpi_setup1: With nkpt_me=    1 and mk1mem =     1, ground state wf handled in core.
 For input ecut=  1.000000E+01 best grid ngfft=      30      30      30
       max ecut=  1.110330E+01

 ==== FFT mesh ====
  FFT mesh divisions ........................    30   30   30
  Augmented FFT divisions ...................    31   31   30
  FFT algorithm .............................   112
  FFT cache size ............................    16
 getmpw: optimal value of mpw=     752
 mpi_setup1: mkmem  undefined in the input file. Use default mkmem  = nkpt
 mpi_setup1: With nkpt_me=    1 and mkmem  =     1, ground state wf handled in core.
 mpi_setup1: mkqmem undefined in the input file. Use default mkqmem = nkpt
 mpi_setup1: With nkpt_me=    1 and mkqmem =     1, ground state wf handled in core.
 mpi_setup1: mk1mem undefined in the input file. Use default mk1mem = nkpt
 mpi_setup1: With nkpt_me=    1 and mk1mem =     1, ground state wf handled in core.
 For input ecut=  1.000000E+01 best grid ngfft=      30      30      30
       max ecut=  1.110330E+01

 ==== FFT mesh ====
  FFT mesh divisions ........................    30   30   30
  Augmented FFT divisions ...................    31   31   30
  FFT algorithm .............................   112
  FFT cache size ............................    16
 getmpw: optimal value of mpw=     752

 DATASET    1 : space group P4/m m m (#123); Bravais tP (primitive tetrag.)

 getdim_nloc : COMMENT -
  Despite there is only a local part to pseudopotential(s),
  lmnmax and lnmax are set to 1.

 getdim_nloc : deduce lmnmax  =   1, lnmax  =   1,
                      lmnmaxso=   1, lnmaxso=   1.
 setmqgrid : COMMENT -
  The number of points "mqgrid" in reciprocal space used for the
  description of the pseudopotentials has been set automatically
  by abinit to :     3001.
 memory : analysis of memory needs
================================================================================
 Values of the parameters that define the memory need for DATASET  1.
   intxc =         0  ionmov =         0    iscf =         7 xclevel =         1
  lmnmax =         1   lnmax =         1   mband =         1  mffmem =         1
P  mgfft =        30   mkmem =         1 mpssoang=         1     mpw =       752
  mqgrid =      3001   natom =         2    nfft =     27000    nkpt =         1
  nloalg =         4  nspden =         1 nspinor =         1  nsppol =         1
    nsym =        16  n1xccc =         0  ntypat =         1  occopt =         1
================================================================================
P This job should need less than                       7.888 Mbytes of memory.
  Rough estimation (10% accuracy) of disk space for files :
_ WF disk file :      0.013 Mbytes ; DEN or POT disk file :      0.208 Mbytes.
================================================================================

 Biggest array : f_fftgr(disk), with      3.2979 MBytes.
 memana : allocated an array of      3.298 Mbytes, for testing purposes.
 memana : allocated       7.888 Mbytes, for testing purposes.
 The job will continue.

 DATASET    2 : space group P4/m m m (#123); Bravais tP (primitive tetrag.)

 getdim_nloc : COMMENT -
  Despite there is only a local part to pseudopotential(s),
  lmnmax and lnmax are set to 1.

 getdim_nloc : deduce lmnmax  =   1, lnmax  =   1,
                      lmnmaxso=   1, lnmaxso=   1.
 setmqgrid : COMMENT -
  The number of points "mqgrid" in reciprocal space used for the
  description of the pseudopotentials has been set automatically
  by abinit to :     3001.
 memory : analysis of memory needs
================================================================================
 Values of the parameters that define the memory need for DATASET  2.
   intxc =         0  ionmov =         0    iscf =         7 xclevel =         1
  lmnmax =         1   lnmax =         1   mband =         1  mffmem =         1
P  mgfft =        30   mkmem =         1 mpssoang=         1     mpw =       752
  mqgrid =      3001   natom =         2    nfft =     27000    nkpt =         1
  nloalg =         4  nspden =         1 nspinor =         1  nsppol =         1
    nsym =        16  n1xccc =         0  ntypat =         1  occopt =         1
================================================================================
P This job should need less than                       7.888 Mbytes of memory.
  Rough estimation (10% accuracy) of disk space for files :
_ WF disk file :      0.013 Mbytes ; DEN or POT disk file :      0.208 Mbytes.
================================================================================

 Biggest array : f_fftgr(disk), with      3.2979 MBytes.
 memana : allocated an array of      3.298 Mbytes, for testing purposes.
 memana : allocated       7.888 Mbytes, for testing purposes.
 The job will continue.

 DATASET    3 : space group P4/m m m (#123); Bravais tP (primitive tetrag.)

 getdim_nloc : COMMENT -
  Despite there is only a local part to pseudopotential(s),
  lmnmax and lnmax are set to 1.

 getdim_nloc : deduce lmnmax  =   1, lnmax  =   1,
                      lmnmaxso=   1, lnmaxso=   1.
 setmqgrid : COMMENT -
  The number of points "mqgrid" in reciprocal space used for the
  description of the pseudopotentials has been set automatically
  by abinit to :     3001.
 memory : analysis of memory needs
================================================================================
 Values of the parameters that define the memory need for DATASET  3.
   intxc =         0  ionmov =         0    iscf =         7 xclevel =         1
  lmnmax =         1   lnmax =         1   mband =         1  mffmem =         1
P  mgfft =        30   mkmem =         1 mpssoang=         1     mpw =       752
  mqgrid =      3001   natom =         2    nfft =     27000    nkpt =         1
  nloalg =         4  nspden =         1 nspinor =         1  nsppol =         1
    nsym =        16  n1xccc =         0  ntypat =         1  occopt =         1
================================================================================
P This job should need less than                       7.888 Mbytes of memory.
  Rough estimation (10% accuracy) of disk space for files :
_ WF disk file :      0.013 Mbytes ; DEN or POT disk file :      0.208 Mbytes.
================================================================================

 Biggest array : f_fftgr(disk), with      3.2979 MBytes.
 memana : allocated an array of      3.298 Mbytes, for testing purposes.
 memana : allocated       7.888 Mbytes, for testing purposes.
 The job will continue.

 DATASET    4 : space group P4/m m m (#123); Bravais tP (primitive tetrag.)

 getdim_nloc : COMMENT -
  Despite there is only a local part to pseudopotential(s),
  lmnmax and lnmax are set to 1.

 getdim_nloc : deduce lmnmax  =   1, lnmax  =   1,
                      lmnmaxso=   1, lnmaxso=   1.
 setmqgrid : COMMENT -
  The number of points "mqgrid" in reciprocal space used for the
  description of the pseudopotentials has been set automatically
  by abinit to :     3001.
 memory : analysis of memory needs
================================================================================
 Values of the parameters that define the memory need for DATASET  4.
   intxc =         0  ionmov =         0    iscf =         7 xclevel =         1
  lmnmax =         1   lnmax =         1   mband =         1  mffmem =         1
P  mgfft =        30   mkmem =         1 mpssoang=         1     mpw =       752
  mqgrid =      3001   natom =         2    nfft =     27000    nkpt =         1
  nloalg =         4  nspden =         1 nspinor =         1  nsppol =         1
    nsym =        16  n1xccc =         0  ntypat =         1  occopt =         1
================================================================================
P This job should need less than                       7.888 Mbytes of memory.
  Rough estimation (10% accuracy) of disk space for files :
_ WF disk file :      0.013 Mbytes ; DEN or POT disk file :      0.208 Mbytes.
================================================================================

 Biggest array : f_fftgr(disk), with      3.2979 MBytes.
 memana : allocated an array of      3.298 Mbytes, for testing purposes.
 memana : allocated       7.888 Mbytes, for testing purposes.
 The job will continue.

 DATASET    5 : space group P4/m m m (#123); Bravais tP (primitive tetrag.)

 getdim_nloc : COMMENT -
  Despite there is only a local part to pseudopotential(s),
  lmnmax and lnmax are set to 1.

 getdim_nloc : deduce lmnmax  =   1, lnmax  =   1,
                      lmnmaxso=   1, lnmaxso=   1.
 setmqgrid : COMMENT -
  The number of points "mqgrid" in reciprocal space used for the
  description of the pseudopotentials has been set automatically
  by abinit to :     3001.
 memory : analysis of memory needs
================================================================================
 Values of the parameters that define the memory need for DATASET  5.
   intxc =         0  ionmov =         0    iscf =         7 xclevel =         1
  lmnmax =         1   lnmax =         1   mband =         1  mffmem =         1
P  mgfft =        30   mkmem =         1 mpssoang=         1     mpw =       752
  mqgrid =      3001   natom =         2    nfft =     27000    nkpt =         1
  nloalg =         4  nspden =         1 nspinor =         1  nsppol =         1
    nsym =        16  n1xccc =         0  ntypat =         1  occopt =         1
================================================================================
P This job should need less than                       7.888 Mbytes of memory.
  Rough estimation (10% accuracy) of disk space for files :
_ WF disk file :      0.013 Mbytes ; DEN or POT disk file :      0.208 Mbytes.
================================================================================

 Biggest array : f_fftgr(disk), with      3.2979 MBytes.
 memana : allocated an array of      3.298 Mbytes, for testing purposes.
 memana : allocated       7.888 Mbytes, for testing purposes.
 The job will continue.

 DATASET    6 : space group P4/m m m (#123); Bravais tP (primitive tetrag.)

 getdim_nloc : COMMENT -
  Despite there is only a local part to pseudopotential(s),
  lmnmax and lnmax are set to 1.

 getdim_nloc : deduce lmnmax  =   1, lnmax  =   1,
                      lmnmaxso=   1, lnmaxso=   1.
 setmqgrid : COMMENT -
  The number of points "mqgrid" in reciprocal space used for the
  description of the pseudopotentials has been set automatically
  by abinit to :     3001.
 memory : analysis of memory needs
================================================================================
 Values of the parameters that define the memory need for DATASET  6.
   intxc =         0  ionmov =         0    iscf =         7 xclevel =         1
  lmnmax =         1   lnmax =         1   mband =         1  mffmem =         1
P  mgfft =        30   mkmem =         1 mpssoang=         1     mpw =       752
  mqgrid =      3001   natom =         2    nfft =     27000    nkpt =         1
  nloalg =         4  nspden =         1 nspinor =         1  nsppol =         1
    nsym =        16  n1xccc =         0  ntypat =         1  occopt =         1
================================================================================
P This job should need less than                       7.888 Mbytes of memory.
  Rough estimation (10% accuracy) of disk space for files :
_ WF disk file :      0.013 Mbytes ; DEN or POT disk file :      0.208 Mbytes.
================================================================================

 Biggest array : f_fftgr(disk), with      3.2979 MBytes.
 memana : allocated an array of      3.298 Mbytes, for testing purposes.
 memana : allocated       7.888 Mbytes, for testing purposes.
 The job will continue.

 DATASET    7 : space group P4/m m m (#123); Bravais tP (primitive tetrag.)

 getdim_nloc : COMMENT -
  Despite there is only a local part to pseudopotential(s),
  lmnmax and lnmax are set to 1.

 getdim_nloc : deduce lmnmax  =   1, lnmax  =   1,
                      lmnmaxso=   1, lnmaxso=   1.
 setmqgrid : COMMENT -
  The number of points "mqgrid" in reciprocal space used for the
  description of the pseudopotentials has been set automatically
  by abinit to :     3001.
 memory : analysis of memory needs
================================================================================
 Values of the parameters that define the memory need for DATASET  7.
   intxc =         0  ionmov =         0    iscf =         7 xclevel =         1
  lmnmax =         1   lnmax =         1   mband =         1  mffmem =         1
P  mgfft =        30   mkmem =         1 mpssoang=         1     mpw =       752
  mqgrid =      3001   natom =         2    nfft =     27000    nkpt =         1
  nloalg =         4  nspden =         1 nspinor =         1  nsppol =         1
    nsym =        16  n1xccc =         0  ntypat =         1  occopt =         1
================================================================================
P This job should need less than                       7.888 Mbytes of memory.
  Rough estimation (10% accuracy) of disk space for files :
_ WF disk file :      0.013 Mbytes ; DEN or POT disk file :      0.208 Mbytes.
================================================================================

 Biggest array : f_fftgr(disk), with      3.2979 MBytes.
 memana : allocated an array of      3.298 Mbytes, for testing purposes.
 memana : allocated       7.888 Mbytes, for testing purposes.
 The job will continue.

 DATASET    8 : space group P4/m m m (#123); Bravais tP (primitive tetrag.)

 getdim_nloc : COMMENT -
  Despite there is only a local part to pseudopotential(s),
  lmnmax and lnmax are set to 1.

 getdim_nloc : deduce lmnmax  =   1, lnmax  =   1,
                      lmnmaxso=   1, lnmaxso=   1.
 setmqgrid : COMMENT -
  The number of points "mqgrid" in reciprocal space used for the
  description of the pseudopotentials has been set automatically
  by abinit to :     3001.
 memory : analysis of memory needs
================================================================================
 Values of the parameters that define the memory need for DATASET  8.
   intxc =         0  ionmov =         0    iscf =         7 xclevel =         1
  lmnmax =         1   lnmax =         1   mband =         1  mffmem =         1
P  mgfft =        30   mkmem =         1 mpssoang=         1     mpw =       752
  mqgrid =      3001   natom =         2    nfft =     27000    nkpt =         1
  nloalg =         4  nspden =         1 nspinor =         1  nsppol =         1
    nsym =        16  n1xccc =         0  ntypat =         1  occopt =         1
================================================================================
P This job should need less than                       7.888 Mbytes of memory.
  Rough estimation (10% accuracy) of disk space for files :
_ WF disk file :      0.013 Mbytes ; DEN or POT disk file :      0.208 Mbytes.
================================================================================

 Biggest array : f_fftgr(disk), with      3.2979 MBytes.
 memana : allocated an array of      3.298 Mbytes, for testing purposes.
 memana : allocated       7.888 Mbytes, for testing purposes.
 The job will continue.

 DATASET    9 : space group P4/m m m (#123); Bravais tP (primitive tetrag.)

 getdim_nloc : COMMENT -
  Despite there is only a local part to pseudopotential(s),
  lmnmax and lnmax are set to 1.

 getdim_nloc : deduce lmnmax  =   1, lnmax  =   1,
                      lmnmaxso=   1, lnmaxso=   1.
 setmqgrid : COMMENT -
  The number of points "mqgrid" in reciprocal space used for the
  description of the pseudopotentials has been set automatically
  by abinit to :     3001.
 memory : analysis of memory needs
================================================================================
 Values of the parameters that define the memory need for DATASET  9.
   intxc =         0  ionmov =         0    iscf =         7 xclevel =         1
  lmnmax =         1   lnmax =         1   mband =         1  mffmem =         1
P  mgfft =        30   mkmem =         1 mpssoang=         1     mpw =       752
  mqgrid =      3001   natom =         2    nfft =     27000    nkpt =         1
  nloalg =         4  nspden =         1 nspinor =         1  nsppol =         1
    nsym =        16  n1xccc =         0  ntypat =         1  occopt =         1
================================================================================
P This job should need less than                       7.888 Mbytes of memory.
  Rough estimation (10% accuracy) of disk space for files :
_ WF disk file :      0.013 Mbytes ; DEN or POT disk file :      0.208 Mbytes.
================================================================================

 Biggest array : f_fftgr(disk), with      3.2979 MBytes.
 memana : allocated an array of      3.298 Mbytes, for testing purposes.
 memana : allocated       7.888 Mbytes, for testing purposes.
 The job will continue.

 DATASET   10 : space group P4/m m m (#123); Bravais tP (primitive tetrag.)

 getdim_nloc : COMMENT -
  Despite there is only a local part to pseudopotential(s),
  lmnmax and lnmax are set to 1.

 getdim_nloc : deduce lmnmax  =   1, lnmax  =   1,
                      lmnmaxso=   1, lnmaxso=   1.
 setmqgrid : COMMENT -
  The number of points "mqgrid" in reciprocal space used for the
  description of the pseudopotentials has been set automatically
  by abinit to :     3001.
 memory : analysis of memory needs
================================================================================
 Values of the parameters that define the memory need for DATASET 10.
   intxc =         0  ionmov =         0    iscf =         7 xclevel =         1
  lmnmax =         1   lnmax =         1   mband =         1  mffmem =         1
P  mgfft =        30   mkmem =         1 mpssoang=         1     mpw =       752
  mqgrid =      3001   natom =         2    nfft =     27000    nkpt =         1
  nloalg =         4  nspden =         1 nspinor =         1  nsppol =         1
    nsym =        16  n1xccc =         0  ntypat =         1  occopt =         1
================================================================================
P This job should need less than                       7.888 Mbytes of memory.
  Rough estimation (10% accuracy) of disk space for files :
_ WF disk file :      0.013 Mbytes ; DEN or POT disk file :      0.208 Mbytes.
================================================================================

 Biggest array : f_fftgr(disk), with      3.2979 MBytes.
 memana : allocated an array of      3.298 Mbytes, for testing purposes.
[...]
            fcart7    -8.2441144940E-02 -0.0000000000E+00 -0.0000000000E+00
                       8.2441144940E-02 -0.0000000000E+00 -0.0000000000E+00
            fcart8    -5.7933488256E-02 -0.0000000000E+00 -0.0000000000E+00
                       5.7933488256E-02 -0.0000000000E+00 -0.0000000000E+00
            fcart9    -3.7403529329E-02 -0.0000000000E+00 -0.0000000000E+00
                       3.7403529329E-02 -0.0000000000E+00 -0.0000000000E+00
            fcart10   -2.0121858662E-02 -0.0000000000E+00 -0.0000000000E+00
                       2.0121858662E-02 -0.0000000000E+00 -0.0000000000E+00
            fcart11   -5.4945071285E-03 -0.0000000000E+00 -0.0000000000E+00
                       5.4945071285E-03 -0.0000000000E+00 -0.0000000000E+00
            fcart12    6.9603067838E-03 -0.0000000000E+00 -0.0000000000E+00
                      -6.9603067838E-03 -0.0000000000E+00 -0.0000000000E+00
            fcart13    1.7632098882E-02 -0.0000000000E+00 -0.0000000000E+00
                      -1.7632098882E-02 -0.0000000000E+00 -0.0000000000E+00
            fcart14    2.6833510642E-02 -0.0000000000E+00 -0.0000000000E+00
                      -2.6833510642E-02 -0.0000000000E+00 -0.0000000000E+00
            fcart15    3.4812773107E-02 -0.0000000000E+00 -0.0000000000E+00
                      -3.4812773107E-02 -0.0000000000E+00 -0.0000000000E+00
            fcart16    4.1768116517E-02 -0.0000000000E+00 -0.0000000000E+00
                      -4.1768116517E-02 -0.0000000000E+00 -0.0000000000E+00
            fcart17    4.7851766364E-02 -0.0000000000E+00 -0.0000000000E+00
                      -4.7851766364E-02 -0.0000000000E+00 -0.0000000000E+00
            fcart18    5.3181838510E-02 -0.0000000000E+00 -0.0000000000E+00
                      -5.3181838510E-02 -0.0000000000E+00 -0.0000000000E+00
            fcart19    5.7848254452E-02 -0.0000000000E+00 -0.0000000000E+00
                      -5.7848254452E-02 -0.0000000000E+00 -0.0000000000E+00
            fcart20    6.1918647531E-02 -0.0000000000E+00 -0.0000000000E+00
                      -6.1918647531E-02 -0.0000000000E+00 -0.0000000000E+00
            fcart21    6.5443577423E-02 -0.0000000000E+00 -0.0000000000E+00
                      -6.5443577423E-02 -0.0000000000E+00 -0.0000000000E+00
           getwfk          -1
           istwfk        2
           jdtset        1    2    3    4    5    6    7    8    9   10
                        11   12   13   14   15   16   17   18   19   20
                        21
           kptopt           0
P           mkmem           1
            natom           2
            nband           1
           ndtset          21
            ngfft          30      30      30
             nkpt           1
            nstep          10
             nsym          16
           ntypat           1
              occ      2.000000
          spgroup         123
           strten1    -3.6564446295E-04  5.4689925034E-05  5.4689925034E-05
                       0.0000000000E+00  0.0000000000E+00  0.0000000000E+00
           strten2    -3.0369756306E-04  5.0637360751E-05  5.0637360751E-05
                       0.0000000000E+00  0.0000000000E+00  0.0000000000E+00
           strten3    -2.4814768285E-04  4.7170073264E-05  4.7170073264E-05
                       0.0000000000E+00  0.0000000000E+00  0.0000000000E+00
           strten4    -1.9832871988E-04  4.4246867950E-05  4.4246867950E-05
                       0.0000000000E+00  0.0000000000E+00  0.0000000000E+00
           strten5    -1.5364836861E-04  4.1818053215E-05  4.1818053215E-05
                       0.0000000000E+00  0.0000000000E+00  0.0000000000E+00
           strten6    -1.1357566207E-04  3.9831248177E-05  3.9831248177E-05
                       0.0000000000E+00  0.0000000000E+00  0.0000000000E+00
           strten7    -7.7631517539E-05  3.8235337044E-05  3.8235337044E-05
                       0.0000000000E+00  0.0000000000E+00  0.0000000000E+00
           strten8    -4.5382641027E-05  3.6977970719E-05  3.6977970719E-05
                       0.0000000000E+00  0.0000000000E+00  0.0000000000E+00
           strten9    -1.6435806916E-05  3.6010231881E-05  3.6010231881E-05
                       0.0000000000E+00  0.0000000000E+00  0.0000000000E+00
           strten10    9.5659250854E-06  3.5284793026E-05  3.5284793026E-05
                       0.0000000000E+00  0.0000000000E+00  0.0000000000E+00
           strten11    3.2946519340E-05  3.4757701203E-05  3.4757701203E-05
                       0.0000000000E+00  0.0000000000E+00  0.0000000000E+00
           strten12    5.3999700500E-05  3.4389463370E-05  3.4389463370E-05
                       0.0000000000E+00  0.0000000000E+00  0.0000000000E+00
           strten13    7.2991093068E-05  3.4143850792E-05  3.4143850792E-05
                       0.0000000000E+00  0.0000000000E+00  0.0000000000E+00
           strten14    9.0160077126E-05  3.3988992703E-05  3.3988992703E-05
                       0.0000000000E+00  0.0000000000E+00  0.0000000000E+00
           strten15    1.0572188870E-04  3.3897808572E-05  3.3897808572E-05
                       0.0000000000E+00  0.0000000000E+00  0.0000000000E+00
           strten16    1.1986728423E-04  3.3845371502E-05  3.3845371502E-05
                       0.0000000000E+00  0.0000000000E+00  0.0000000000E+00
           strten17    1.3276627591E-04  3.3813456714E-05  3.3813456714E-05
                       0.0000000000E+00  0.0000000000E+00  0.0000000000E+00
           strten18    1.4456782044E-04  3.3786774056E-05  3.3786774056E-05
                       0.0000000000E+00  0.0000000000E+00  0.0000000000E+00
           strten19    1.5540136424E-04  3.3753764040E-05  3.3753764040E-05
                       0.0000000000E+00  0.0000000000E+00  0.0000000000E+00
           strten20    1.6537807711E-04  3.3706484191E-05  3.3706484191E-05
                       0.0000000000E+00  0.0000000000E+00  0.0000000000E+00
           strten21    1.7459217685E-04  3.3640141685E-05  3.3640141685E-05
                       0.0000000000E+00  0.0000000000E+00  0.0000000000E+00
           symrel      1  0  0   0  1  0   0  0  1      -1  0  0   0 -1  0   0  0 -1
                      -1  0  0   0  1  0   0  0 -1       1  0  0   0 -1  0   0  0  1
                      -1  0  0   0 -1  0   0  0  1       1  0  0   0  1  0   0  0 -1
                       1  0  0   0 -1  0   0  0 -1      -1  0  0   0  1  0   0  0  1
                       1  0  0   0  0  1   0  1  0      -1  0  0   0  0 -1   0 -1  0
                      -1  0  0   0  0  1   0 -1  0       1  0  0   0  0 -1   0  1  0
                      -1  0  0   0  0 -1   0  1  0       1  0  0   0  0  1   0 -1  0
                       1  0  0   0  0 -1   0 -1  0      -1  0  0   0  0  1   0  1  0
           toldfe      1.00000000E-06 Hartree
            typat      1  1
           xangst1    -2.6458860429E-01  0.0000000000E+00  0.0000000000E+00
                       2.6458860429E-01  0.0000000000E+00  0.0000000000E+00
           xangst2    -2.7781803451E-01  0.0000000000E+00  0.0000000000E+00
                       2.7781803451E-01  0.0000000000E+00  0.0000000000E+00
           xangst3    -2.9104746472E-01  0.0000000000E+00  0.0000000000E+00
                       2.9104746472E-01  0.0000000000E+00  0.0000000000E+00
           xangst4    -3.0427689494E-01  0.0000000000E+00  0.0000000000E+00
                       3.0427689494E-01  0.0000000000E+00  0.0000000000E+00
           xangst5    -3.1750632515E-01  0.0000000000E+00  0.0000000000E+00
                       3.1750632515E-01  0.0000000000E+00  0.0000000000E+00
           xangst6    -3.3073575537E-01  0.0000000000E+00  0.0000000000E+00
                       3.3073575537E-01  0.0000000000E+00  0.0000000000E+00
           xangst7    -3.4396518558E-01  0.0000000000E+00  0.0000000000E+00
                       3.4396518558E-01  0.0000000000E+00  0.0000000000E+00
           xangst8    -3.5719461580E-01  0.0000000000E+00  0.0000000000E+00
                       3.5719461580E-01  0.0000000000E+00  0.0000000000E+00
           xangst9    -3.7042404601E-01  0.0000000000E+00  0.0000000000E+00
                       3.7042404601E-01  0.0000000000E+00  0.0000000000E+00
           xangst10   -3.8365347623E-01  0.0000000000E+00  0.0000000000E+00
                       3.8365347623E-01  0.0000000000E+00  0.0000000000E+00
           xangst11   -3.9688290644E-01  0.0000000000E+00  0.0000000000E+00
                       3.9688290644E-01  0.0000000000E+00  0.0000000000E+00
           xangst12   -4.1011233666E-01  0.0000000000E+00  0.0000000000E+00
                       4.1011233666E-01  0.0000000000E+00  0.0000000000E+00
           xangst13   -4.2334176687E-01  0.0000000000E+00  0.0000000000E+00
                       4.2334176687E-01  0.0000000000E+00  0.0000000000E+00
           xangst14   -4.3657119709E-01  0.0000000000E+00  0.0000000000E+00
                       4.3657119709E-01  0.0000000000E+00  0.0000000000E+00
           xangst15   -4.4980062730E-01  0.0000000000E+00  0.0000000000E+00
                       4.4980062730E-01  0.0000000000E+00  0.0000000000E+00
           xangst16   -4.6303005752E-01  0.0000000000E+00  0.0000000000E+00
                       4.6303005752E-01  0.0000000000E+00  0.0000000000E+00
           xangst17   -4.7625948773E-01  0.0000000000E+00  0.0000000000E+00
                       4.7625948773E-01  0.0000000000E+00  0.0000000000E+00
           xangst18   -4.8948891795E-01  0.0000000000E+00  0.0000000000E+00
                       4.8948891795E-01  0.0000000000E+00  0.0000000000E+00
           xangst19   -5.0271834816E-01  0.0000000000E+00  0.0000000000E+00
                       5.0271834816E-01  0.0000000000E+00  0.0000000000E+00
           xangst20   -5.1594777838E-01  0.0000000000E+00  0.0000000000E+00
                       5.1594777838E-01  0.0000000000E+00  0.0000000000E+00
           xangst21   -5.2917720859E-01  0.0000000000E+00  0.0000000000E+00
                       5.2917720859E-01  0.0000000000E+00  0.0000000000E+00
            xcart1    -5.0000000000E-01  0.0000000000E+00  0.0000000000E+00
                       5.0000000000E-01  0.0000000000E+00  0.0000000000E+00
            xcart2    -5.2500000000E-01  0.0000000000E+00  0.0000000000E+00
                       5.2500000000E-01  0.0000000000E+00  0.0000000000E+00
            xcart3    -5.5000000000E-01  0.0000000000E+00  0.0000000000E+00
                       5.5000000000E-01  0.0000000000E+00  0.0000000000E+00
            xcart4    -5.7500000000E-01  0.0000000000E+00  0.0000000000E+00
                       5.7500000000E-01  0.0000000000E+00  0.0000000000E+00
            xcart5    -6.0000000000E-01  0.0000000000E+00  0.0000000000E+00
                       6.0000000000E-01  0.0000000000E+00  0.0000000000E+00
            xcart6    -6.2500000000E-01  0.0000000000E+00  0.0000000000E+00
                       6.2500000000E-01  0.0000000000E+00  0.0000000000E+00
            xcart7    -6.5000000000E-01  0.0000000000E+00  0.0000000000E+00
                       6.5000000000E-01  0.0000000000E+00  0.0000000000E+00
            xcart8    -6.7500000000E-01  0.0000000000E+00  0.0000000000E+00
                       6.7500000000E-01  0.0000000000E+00  0.0000000000E+00
            xcart9    -7.0000000000E-01  0.0000000000E+00  0.0000000000E+00
                       7.0000000000E-01  0.0000000000E+00  0.0000000000E+00
            xcart10   -7.2500000000E-01  0.0000000000E+00  0.0000000000E+00
                       7.2500000000E-01  0.0000000000E+00  0.0000000000E+00
            xcart11   -7.5000000000E-01  0.0000000000E+00  0.0000000000E+00
                       7.5000000000E-01  0.0000000000E+00  0.0000000000E+00
            xcart12   -7.7500000000E-01  0.0000000000E+00  0.0000000000E+00
                       7.7500000000E-01  0.0000000000E+00  0.0000000000E+00
            xcart13   -8.0000000000E-01  0.0000000000E+00  0.0000000000E+00
                       8.0000000000E-01  0.0000000000E+00  0.0000000000E+00
            xcart14   -8.2500000000E-01  0.0000000000E+00  0.0000000000E+00
                       8.2500000000E-01  0.0000000000E+00  0.0000000000E+00
            xcart15   -8.5000000000E-01  0.0000000000E+00  0.0000000000E+00
                       8.5000000000E-01  0.0000000000E+00  0.0000000000E+00
            xcart16   -8.7500000000E-01  0.0000000000E+00  0.0000000000E+00
                       8.7500000000E-01  0.0000000000E+00  0.0000000000E+00
            xcart17   -9.0000000000E-01  0.0000000000E+00  0.0000000000E+00
                       9.0000000000E-01  0.0000000000E+00  0.0000000000E+00
            xcart18   -9.2500000000E-01  0.0000000000E+00  0.0000000000E+00
                       9.2500000000E-01  0.0000000000E+00  0.0000000000E+00
            xcart19   -9.5000000000E-01  0.0000000000E+00  0.0000000000E+00
                       9.5000000000E-01  0.0000000000E+00  0.0000000000E+00
            xcart20   -9.7500000000E-01  0.0000000000E+00  0.0000000000E+00
                       9.7500000000E-01  0.0000000000E+00  0.0000000000E+00
            xcart21   -1.0000000000E+00  0.0000000000E+00  0.0000000000E+00
                       1.0000000000E+00  0.0000000000E+00  0.0000000000E+00
             xred1    -5.0000000000E-02  0.0000000000E+00  0.0000000000E+00
                       5.0000000000E-02  0.0000000000E+00  0.0000000000E+00
             xred2    -5.2500000000E-02  0.0000000000E+00  0.0000000000E+00
                       5.2500000000E-02  0.0000000000E+00  0.0000000000E+00
             xred3    -5.5000000000E-02  0.0000000000E+00  0.0000000000E+00
                       5.5000000000E-02  0.0000000000E+00  0.0000000000E+00
             xred4    -5.7500000000E-02  0.0000000000E+00  0.0000000000E+00
                       5.7500000000E-02  0.0000000000E+00  0.0000000000E+00
             xred5    -6.0000000000E-02  0.0000000000E+00  0.0000000000E+00
                       6.0000000000E-02  0.0000000000E+00  0.0000000000E+00
             xred6    -6.2500000000E-02  0.0000000000E+00  0.0000000000E+00
                       6.2500000000E-02  0.0000000000E+00  0.0000000000E+00
             xred7    -6.5000000000E-02  0.0000000000E+00  0.0000000000E+00
                       6.5000000000E-02  0.0000000000E+00  0.0000000000E+00
             xred8    -6.7500000000E-02  0.0000000000E+00  0.0000000000E+00
                       6.7500000000E-02  0.0000000000E+00  0.0000000000E+00
             xred9    -7.0000000000E-02  0.0000000000E+00  0.0000000000E+00
                       7.0000000000E-02  0.0000000000E+00  0.0000000000E+00
             xred10   -7.2500000000E-02  0.0000000000E+00  0.0000000000E+00
                       7.2500000000E-02  0.0000000000E+00  0.0000000000E+00
             xred11   -7.5000000000E-02  0.0000000000E+00  0.0000000000E+00
                       7.5000000000E-02  0.0000000000E+00  0.0000000000E+00
             xred12   -7.7500000000E-02  0.0000000000E+00  0.0000000000E+00
                       7.7500000000E-02  0.0000000000E+00  0.0000000000E+00
             xred13   -8.0000000000E-02  0.0000000000E+00  0.0000000000E+00
                       8.0000000000E-02  0.0000000000E+00  0.0000000000E+00
             xred14   -8.2500000000E-02  0.0000000000E+00  0.0000000000E+00
                       8.2500000000E-02  0.0000000000E+00  0.0000000000E+00
             xred15   -8.5000000000E-02  0.0000000000E+00  0.0000000000E+00
                       8.5000000000E-02  0.0000000000E+00  0.0000000000E+00
             xred16   -8.7500000000E-02  0.0000000000E+00  0.0000000000E+00
                       8.7500000000E-02  0.0000000000E+00  0.0000000000E+00
             xred17   -9.0000000000E-02  0.0000000000E+00  0.0000000000E+00
                       9.0000000000E-02  0.0000000000E+00  0.0000000000E+00
             xred18   -9.2500000000E-02  0.0000000000E+00  0.0000000000E+00
                       9.2500000000E-02  0.0000000000E+00  0.0000000000E+00
             xred19   -9.5000000000E-02  0.0000000000E+00  0.0000000000E+00
                       9.5000000000E-02  0.0000000000E+00  0.0000000000E+00
             xred20   -9.7500000000E-02  0.0000000000E+00  0.0000000000E+00
                       9.7500000000E-02  0.0000000000E+00  0.0000000000E+00
             xred21   -1.0000000000E-01  0.0000000000E+00  0.0000000000E+00
                       1.0000000000E-01  0.0000000000E+00  0.0000000000E+00
            znucl        1.00000

================================================================================
  

================================================================================

 Suggested references for the acknowledgment of ABINIT usage.

 The users of ABINIT have little formal obligations with respect to the ABINIT group
 (those specified in the GNU General Public License, http://www.gnu.org/copyleft/gpl.txt).
 However, it is common practice in the scientific literature,
 to acknowledge the efforts of people that have made the research possible.
 In this spirit, please find below suggested citations of work written by ABINIT developers,
 corresponding to implementations inside of ABINIT that you have used in the present run.
 Note also that it will be of great value to readers of publications presenting these results,
 to read papers enabling them to understand the theoretical formalism and details
 of the ABINIT implementation.
 For information on why they are suggested, see also http://www.abinit.org/about/?text=acknowledgments.

 [1] ABINIT : First-principles approach of materials and nanosystem properties.
 X. Gonze, B. Amadon, P.-M. Anglade, J.-M. Beuken, F. Bottin, P. Boulanger, F. Bruneval,
 D. Caliste, R. Caracas, M. Cote, T. Deutsch, L. Genovese, Ph. Ghosez, M. Giantomassi
 S. Goedecker, D.R. Hamann, P. Hermet, F. Jollet, G. Jomard, S. Leroux, M. Mancini, S. Mazevet,
 M.J.T. Oliveira, G. Onida, Y. Pouillon, T. Rangel, G.-M. Rignanese, D. Sangalli, R. Shaltaf,
 M. Torrent, M.J. Verstraete, G. Zerah, J.W. Zwanziger
 Computer Phys. Comm. 180, 2582-2615 (2009).
 Comment : the third generic paper describing the ABINIT project.
 Note that a version of this paper, that is not formatted for Computer Phys. Comm. 
 is available at http://www.abinit.org/about/ABINIT_CPC_v10.pdf .
 The licence allows the authors to put it on the Web.

 [2] A brief introduction to the ABINIT software package.
 X. Gonze, G.-M. Rignanese, M. Verstraete, J.-M. Beuken, Y. Pouillon, R. Caracas, F. Jollet,
 M. Torrent, G. Zerah, M. Mikami, Ph. Ghosez, M. Veithen, J.-Y. Raty, V. Olevano, F. Bruneval,
 L. Reining, R. Godby, G. Onida, D.R. Hamann, and D.C. Allan.
 Z. Kristallogr. 220, 558-562 (2005).
 Comment : the second generic paper describing the ABINIT project. Note that this paper
 should be cited especially if you are using the GW part of ABINIT, as several authors
 of this part are not in the list of authors of the first or third paper.
 The .pdf of the latter paper is available at http://www.abinit.org/about/zfk_0505-06_558-562.pdf.
 Note that it should not redistributed (Copyright by Oldenburg Wissenshaftverlag,
 the licence allows the authors to put it on the Web).


 And optionally :

 [3] First-principles computation of material properties : the ABINIT software project. 
 X. Gonze, J.-M. Beuken, R. Caracas, F. Detraux, M. Fuchs, G.-M. Rignanese, L. Sindic,
 M. Verstraete, G. Zerah, F. Jollet, M. Torrent, A. Roy, M. Mikami, Ph. Ghosez, J.-Y. Raty, D.C. Allan.
 Computational Materials Science 25, 478-492 (2002). http://dx.doi.org/10.1016/S0927-0256(02)00325-7
 Comment : the original paper describing the ABINIT project.

 [4] Fast radix 2, 3, 4 and 5 kernels for Fast Fourier Transformations
 on computers with overlapping multiply-add instructions.
 S. Goedecker, SIAM J. on Scientific Computing 18, 1605 (1997).
 Proc.   0 individual time (sec): cpu=          7.5  wall=          8.9

 Calculation completed.
.Delivered   31 WARNINGs and 106 COMMENTs to log file.
