
.Version 7.0.5 of ABINIT 
.(MPI version, prepared for a i686_cygwin_gnu4.5 computer) 

.Copyright (C) 1998-2012 ABINIT group . 
 ABINIT comes with ABSOLUTELY NO WARRANTY.
 It is free software, and you are welcome to redistribute it
 under certain conditions (GNU General Public License,
 see ~abinit/COPYING or http://www.gnu.org/copyleft/gpl.txt).

 ABINIT is a project of the Universite Catholique de Louvain,
 Corning Inc. and other collaborators, see ~abinit/doc/developers/contributors.txt .
 Please read ~abinit/doc/users/acknowledgments.html for suggested
 acknowledgments of the ABINIT effort.
 For more information, see http://www.abinit.org .

.Starting date : Wed 13 Jun 2018.
- ( at 20h32 )
  

 herald :  WARNING -
  The starting date is more than 3 years after the initial release
  of this version of ABINIT, namely Jan 2013.
  This version of ABINIT is not supported anymore.
  Action : please, switch to a more recent version of ABINIT.
- input  file    -> feni.in
- output file    -> feni.out
- root for input  files -> fenii
- root for output files -> fenio


 DATASET    1 : space group Pm -3 m (#221); Bravais cP (primitive cubic)
================================================================================
 Values of the parameters that define the memory need for DATASET  1.
   intxc =         0  ionmov =         0    iscf =         7 xclevel =         2
  lmnmax =         2   lnmax =         2   mband =        45  mffmem =         1
P  mgfft =        48   mkmem =        16 mpssoang=         3     mpw =      6672
  mqgrid =      3001   natom =         4    nfft =    110592    nkpt =        16
  nloalg =         4  nspden =         1 nspinor =         1  nsppol =         1
    nsym =        48  n1xccc =      2501  ntypat =         2  occopt =         7
================================================================================
P This job should need less than                     111.589 Mbytes of memory.
  Rough estimation (10% accuracy) of disk space for files :
  WF disk file :     73.303 Mbytes ; DEN or POT disk file :      0.846 Mbytes.
================================================================================


 DATASET    2 : space group Pm -3 m (#221); Bravais cP (primitive cubic)
================================================================================
 Values of the parameters that define the memory need for DATASET  2.
   intxc =         0  ionmov =         0    iscf =        -2 xclevel =         2
  lmnmax =         2   lnmax =         2   mband =        45  mffmem =         1
P  mgfft =        48   mkmem =        61 mpssoang=         3     mpw =      6713
  mqgrid =      3001   natom =         4    nfft =    110592    nkpt =        61
  nloalg =         4  nspden =         1 nspinor =         1  nsppol =         1
    nsym =        48  n1xccc =      2501  ntypat =         2  occopt =         7
================================================================================
P This job should need less than                     308.632 Mbytes of memory.
  Rough estimation (10% accuracy) of disk space for files :
  WF disk file :    281.179 Mbytes ; DEN or POT disk file :      0.846 Mbytes.
================================================================================

--------------------------------------------------------------------------------
------------- Echo of variables that govern the present computation ------------
--------------------------------------------------------------------------------
-
- outvars: echo of selected default values                                      
-   accesswff0 =  0 , fftalg0 =112 , wfoptalg0 =  0
-
- outvars: echo of global parameters not present in the input file              
-  max_nthreads =    0
-
 -outvars: echo values of preprocessed input variables --------
            acell      6.6901000000E+00  6.6901000000E+00  6.6901000000E+00 Bohr
              amu      5.58470000E+01  5.86900000E+01
             ecut      6.00000000E+01 Hartree
           ecutsm      5.00000000E-01 Hartree
           enunit           1
           getden1          0
           getden2         -1
             iscf1          7
             iscf2         -2
           istwfk2       2    0    0    0    0    0    0    0    0    0
                         6    0    0    0    0    0    0    0    0    0
                         7    0    0    0    0    0    0    0    0    0
                         0    0    0    0    0    0    0    0    0    0
                         0    0    0    0    0    0    0    0    0    0
                       outvar_i_n : Printing only first  50 k-points.
              ixc          11
           jdtset        1    2
              kpt1     0.00000000E+00  0.00000000E+00  1.25000000E-01
                       0.00000000E+00  0.00000000E+00  3.75000000E-01
                       1.25000000E-01  0.00000000E+00  2.50000000E-01
                       1.25000000E-01  1.25000000E-01  1.25000000E-01
                       1.25000000E-01  0.00000000E+00  5.00000000E-01
                       2.50000000E-01  0.00000000E+00  3.75000000E-01
                       1.25000000E-01  1.25000000E-01  3.75000000E-01
                       2.50000000E-01  1.25000000E-01  2.50000000E-01
                       3.75000000E-01  0.00000000E+00  5.00000000E-01
                       2.50000000E-01  1.25000000E-01  5.00000000E-01
                       3.75000000E-01  1.25000000E-01  3.75000000E-01
                       2.50000000E-01  2.50000000E-01  3.75000000E-01
                       5.00000000E-01  1.25000000E-01  5.00000000E-01
                       3.75000000E-01  2.50000000E-01  5.00000000E-01
                       3.75000000E-01  3.75000000E-01  3.75000000E-01
                       5.00000000E-01  3.75000000E-01  5.00000000E-01
              kpt2     0.00000000E+00  0.00000000E+00  0.00000000E+00
                       0.00000000E+00  5.00000000E-02  0.00000000E+00
                       0.00000000E+00  1.00000000E-01  0.00000000E+00
                       0.00000000E+00  1.50000000E-01  0.00000000E+00
                       0.00000000E+00  2.00000000E-01  0.00000000E+00
                       0.00000000E+00  2.50000000E-01  0.00000000E+00
                       0.00000000E+00  3.00000000E-01  0.00000000E+00
                       0.00000000E+00  3.50000000E-01  0.00000000E+00
                       0.00000000E+00  4.00000000E-01  0.00000000E+00
                       0.00000000E+00  4.50000000E-01  0.00000000E+00
                       0.00000000E+00  5.00000000E-01  0.00000000E+00
                       5.00000000E-02  5.00000000E-01  0.00000000E+00
                       1.00000000E-01  5.00000000E-01  0.00000000E+00
                       1.50000000E-01  5.00000000E-01  0.00000000E+00
                       2.00000000E-01  5.00000000E-01  0.00000000E+00
                       2.50000000E-01  5.00000000E-01  0.00000000E+00
                       3.00000000E-01  5.00000000E-01  0.00000000E+00
                       3.50000000E-01  5.00000000E-01  0.00000000E+00
                       4.00000000E-01  5.00000000E-01  0.00000000E+00
                       4.50000000E-01  5.00000000E-01  0.00000000E+00
                       5.00000000E-01  5.00000000E-01  0.00000000E+00
                       5.50000000E-01  5.50000000E-01  1.00000000E-01
                       6.00000000E-01  6.00000000E-01  2.00000000E-01
                       6.50000000E-01  6.50000000E-01  3.00000000E-01
                       7.00000000E-01  7.00000000E-01  4.00000000E-01
                       7.50000000E-01  7.50000000E-01  5.00000000E-01
                       8.00000000E-01  8.00000000E-01  6.00000000E-01
                       8.50000000E-01  8.50000000E-01  7.00000000E-01
                       9.00000000E-01  9.00000000E-01  8.00000000E-01
                       9.50000000E-01  9.50000000E-01  9.00000000E-01
                       1.00000000E+00  1.00000000E+00  1.00000000E+00
                       9.75000000E-01  9.75000000E-01  9.75000000E-01
                       9.50000000E-01  9.50000000E-01  9.50000000E-01
                       9.25000000E-01  9.25000000E-01  9.25000000E-01
                       9.00000000E-01  9.00000000E-01  9.00000000E-01
                       8.75000000E-01  8.75000000E-01  8.75000000E-01
                       8.50000000E-01  8.50000000E-01  8.50000000E-01
                       8.25000000E-01  8.25000000E-01  8.25000000E-01
                       8.00000000E-01  8.00000000E-01  8.00000000E-01
                       7.75000000E-01  7.75000000E-01  7.75000000E-01
                       7.50000000E-01  7.50000000E-01  7.50000000E-01
                       7.25000000E-01  7.25000000E-01  7.25000000E-01
                       7.00000000E-01  7.00000000E-01  7.00000000E-01
                       6.75000000E-01  6.75000000E-01  6.75000000E-01
                       6.50000000E-01  6.50000000E-01  6.50000000E-01
                       6.25000000E-01  6.25000000E-01  6.25000000E-01
                       6.00000000E-01  6.00000000E-01  6.00000000E-01
                       5.75000000E-01  5.75000000E-01  5.75000000E-01
                       5.50000000E-01  5.50000000E-01  5.50000000E-01
                       5.25000000E-01  5.25000000E-01  5.25000000E-01
                       outvar_i_n : Printing only first  50 k-points.
           kptopt1          1
           kptopt2         -5
         kptrlatt        4   -4   -4     -4    4   -4      4    4    4
          kptrlen1     4.63503724E+01
          kptrlen2     3.00000000E+01
P           mkmem1         16
P           mkmem2         61
            natom           4
            nband1         45
            nband2         45
           nbdbuf1          0
           nbdbuf2          2
           ndtset           2
            ngfft          48      48      48
             nkpt1         16
             nkpt2         61
            nstep          70
             nsym          48
           ntypat           2
              occ      2.000000  2.000000  2.000000  2.000000  2.000000  2.000000
                       2.000000  2.000000  2.000000  2.000000  2.000000  2.000000
                       2.000000  2.000000  2.000000  2.000000  2.000000  2.000000
                       2.000000  0.000000  0.000000  0.000000  0.000000  0.000000
                       0.000000  0.000000  0.000000  0.000000  0.000000  0.000000
                       0.000000  0.000000  0.000000  0.000000  0.000000  0.000000
                       0.000000  0.000000  0.000000  0.000000  0.000000  0.000000
                       0.000000  0.000000  0.000000
                       2.000000  2.000000  2.000000  2.000000  2.000000  2.000000
                       2.000000  2.000000  2.000000  2.000000  2.000000  2.000000
                       2.000000  2.000000  2.000000  2.000000  2.000000  2.000000
                       2.000000  0.000000  0.000000  0.000000  0.000000  0.000000
                       0.000000  0.000000  0.000000  0.000000  0.000000  0.000000
                       0.000000  0.000000  0.000000  0.000000  0.000000  0.000000
                       0.000000  0.000000  0.000000  0.000000  0.000000  0.000000
                       0.000000  0.000000  0.000000
                       2.000000  2.000000  2.000000  2.000000  2.000000  2.000000
                       2.000000  2.000000  2.000000  2.000000  2.000000  2.000000
                       2.000000  2.000000  2.000000  2.000000  2.000000  2.000000
                       2.000000  0.000000  0.000000  0.000000  0.000000  0.000000
                       0.000000  0.000000  0.000000  0.000000  0.000000  0.000000
                       0.000000  0.000000  0.000000  0.000000  0.000000  0.000000
                       0.000000  0.000000  0.000000  0.000000  0.000000  0.000000
                       0.000000  0.000000  0.000000
                       2.000000  2.000000  2.000000  2.000000  2.000000  2.000000
                       2.000000  2.000000  2.000000  2.000000  2.000000  2.000000
                       2.000000  2.000000  2.000000  2.000000  2.000000  2.000000
                       2.000000  0.000000  0.000000  0.000000  0.000000  0.000000
                       0.000000  0.000000  0.000000  0.000000  0.000000  0.000000
                       0.000000  0.000000  0.000000  0.000000  0.000000  0.000000
                       0.000000  0.000000  0.000000  0.000000  0.000000  0.000000
                       0.000000  0.000000  0.000000
                       2.000000  2.000000  2.000000  2.000000  2.000000  2.000000
                       2.000000  2.000000  2.000000  2.000000  2.000000  2.000000
                       2.000000  2.000000  2.000000  2.000000  2.000000  2.000000
                       2.000000  0.000000  0.000000  0.000000  0.000000  0.000000
                       0.000000  0.000000  0.000000  0.000000  0.000000  0.000000
                       0.000000  0.000000  0.000000  0.000000  0.000000  0.000000
                       0.000000  0.000000  0.000000  0.000000  0.000000  0.000000
                       0.000000  0.000000  0.000000
                       2.000000  2.000000  2.000000  2.000000  2.000000  2.000000
                       2.000000  2.000000  2.000000  2.000000  2.000000  2.000000
                       2.000000  2.000000  2.000000  2.000000  2.000000  2.000000
                       2.000000  0.000000  0.000000  0.000000  0.000000  0.000000
                       0.000000  0.000000  0.000000  0.000000  0.000000  0.000000
                       0.000000  0.000000  0.000000  0.000000  0.000000  0.000000
                       0.000000  0.000000  0.000000  0.000000  0.000000  0.000000
                       0.000000  0.000000  0.000000
                       2.000000  2.000000  2.000000  2.000000  2.000000  2.000000
                       2.000000  2.000000  2.000000  2.000000  2.000000  2.000000
                       2.000000  2.000000  2.000000  2.000000  2.000000  2.000000
                       2.000000  0.000000  0.000000  0.000000  0.000000  0.000000
                       0.000000  0.000000  0.000000  0.000000  0.000000  0.000000
                       0.000000  0.000000  0.000000  0.000000  0.000000  0.000000
                       0.000000  0.000000  0.000000  0.000000  0.000000  0.000000
                       0.000000  0.000000  0.000000
                       2.000000  2.000000  2.000000  2.000000  2.000000  2.000000
                       2.000000  2.000000  2.000000  2.000000  2.000000  2.000000
                       2.000000  2.000000  2.000000  2.000000  2.000000  2.000000
                       2.000000  0.000000  0.000000  0.000000  0.000000  0.000000
                       0.000000  0.000000  0.000000  0.000000  0.000000  0.000000
                       0.000000  0.000000  0.000000  0.000000  0.000000  0.000000
                       0.000000  0.000000  0.000000  0.000000  0.000000  0.000000
                       0.000000  0.000000  0.000000
                       2.000000  2.000000  2.000000  2.000000  2.000000  2.000000
                       2.000000  2.000000  2.000000  2.000000  2.000000  2.000000
                       2.000000  2.000000  2.000000  2.000000  2.000000  2.000000
                       2.000000  0.000000  0.000000  0.000000  0.000000  0.000000
                       0.000000  0.000000  0.000000  0.000000  0.000000  0.000000
                       0.000000  0.000000  0.000000  0.000000  0.000000  0.000000
                       0.000000  0.000000  0.000000  0.000000  0.000000  0.000000
                       0.000000  0.000000  0.000000
                       2.000000  2.000000  2.000000  2.000000  2.000000  2.000000
                       2.000000  2.000000  2.000000  2.000000  2.000000  2.000000
                       2.000000  2.000000  2.000000  2.000000  2.000000  2.000000
                       2.000000  0.000000  0.000000  0.000000  0.000000  0.000000
                       0.000000  0.000000  0.000000  0.000000  0.000000  0.000000
                       0.000000  0.000000  0.000000  0.000000  0.000000  0.000000
                       0.000000  0.000000  0.000000  0.000000  0.000000  0.000000
                       0.000000  0.000000  0.000000
                       2.000000  2.000000  2.000000  2.000000  2.000000  2.000000
                       2.000000  2.000000  2.000000  2.000000  2.000000  2.000000
                       2.000000  2.000000  2.000000  2.000000  2.000000  2.000000
                       2.000000  0.000000  0.000000  0.000000  0.000000  0.000000
                       0.000000  0.000000  0.000000  0.000000  0.000000  0.000000
                       0.000000  0.000000  0.000000  0.000000  0.000000  0.000000
                       0.000000  0.000000  0.000000  0.000000  0.000000  0.000000
                       0.000000  0.000000  0.000000
                       2.000000  2.000000  2.000000  2.000000  2.000000  2.000000
                       2.000000  2.000000  2.000000  2.000000  2.000000  2.000000
                       2.000000  2.000000  2.000000  2.000000  2.000000  2.000000
                       2.000000  0.000000  0.000000  0.000000  0.000000  0.000000
                       0.000000  0.000000  0.000000  0.000000  0.000000  0.000000
                       0.000000  0.000000  0.000000  0.000000  0.000000  0.000000
                       0.000000  0.000000  0.000000  0.000000  0.000000  0.000000
                       0.000000  0.000000  0.000000
                       2.000000  2.000000  2.000000  2.000000  2.000000  2.000000
                       2.000000  2.000000  2.000000  2.000000  2.000000  2.000000
                       2.000000  2.000000  2.000000  2.000000  2.000000  2.000000
                       2.000000  0.000000  0.000000  0.000000  0.000000  0.000000
                       0.000000  0.000000  0.000000  0.000000  0.000000  0.000000
                       0.000000  0.000000  0.000000  0.000000  0.000000  0.000000
                       0.000000  0.000000  0.000000  0.000000  0.000000  0.000000
                       0.000000  0.000000  0.000000
                       2.000000  2.000000  2.000000  2.000000  2.000000  2.000000
                       2.000000  2.000000  2.000000  2.000000  2.000000  2.000000
                       2.000000  2.000000  2.000000  2.000000  2.000000  2.000000
                       2.000000  0.000000  0.000000  0.000000  0.000000  0.000000
                       0.000000  0.000000  0.000000  0.000000  0.000000  0.000000
                       0.000000  0.000000  0.000000  0.000000  0.000000  0.000000
                       0.000000  0.000000  0.000000  0.000000  0.000000  0.000000
                       0.000000  0.000000  0.000000
                       2.000000  2.000000  2.000000  2.000000  2.000000  2.000000
                       2.000000  2.000000  2.000000  2.000000  2.000000  2.000000
                       2.000000  2.000000  2.000000  2.000000  2.000000  2.000000
                       2.000000  0.000000  0.000000  0.000000  0.000000  0.000000
                       0.000000  0.000000  0.000000  0.000000  0.000000  0.000000
                       0.000000  0.000000  0.000000  0.000000  0.000000  0.000000
                       0.000000  0.000000  0.000000  0.000000  0.000000  0.000000
                       0.000000  0.000000  0.000000
                       2.000000  2.000000  2.000000  2.000000  2.000000  2.000000
                       2.000000  2.000000  2.000000  2.000000  2.000000  2.000000
                       2.000000  2.000000  2.000000  2.000000  2.000000  2.000000
                       2.000000  0.000000  0.000000  0.000000  0.000000  0.000000
                       0.000000  0.000000  0.000000  0.000000  0.000000  0.000000
                       0.000000  0.000000  0.000000  0.000000  0.000000  0.000000
                       0.000000  0.000000  0.000000  0.000000  0.000000  0.000000
                       0.000000  0.000000  0.000000
           occopt           7
           shiftk1    -5.00000000E-01 -5.00000000E-01  5.00000000E-01
           shiftk2     5.00000000E-01  5.00000000E-01  5.00000000E-01
          spgroup         221
           symrel      1  0  0   0  1  0   0  0  1      -1  0  0   0 -1  0   0  0 -1
                      -1  0  0   0  1  0   0  0 -1       1  0  0   0 -1  0   0  0  1
                      -1  0  0   0 -1  0   0  0  1       1  0  0   0  1  0   0  0 -1
                       1  0  0   0 -1  0   0  0 -1      -1  0  0   0  1  0   0  0  1
                       0  1  0   1  0  0   0  0  1       0 -1  0  -1  0  0   0  0 -1
                       0 -1  0   1  0  0   0  0 -1       0  1  0  -1  0  0   0  0  1
                       0 -1  0  -1  0  0   0  0  1       0  1  0   1  0  0   0  0 -1
                       0  1  0  -1  0  0   0  0 -1       0 -1  0   1  0  0   0  0  1
                       0  0  1   1  0  0   0  1  0       0  0 -1  -1  0  0   0 -1  0
                       0  0 -1   1  0  0   0 -1  0       0  0  1  -1  0  0   0  1  0
                       0  0 -1  -1  0  0   0  1  0       0  0  1   1  0  0   0 -1  0
                       0  0  1  -1  0  0   0 -1  0       0  0 -1   1  0  0   0  1  0
                       1  0  0   0  0  1   0  1  0      -1  0  0   0  0 -1   0 -1  0
                      -1  0  0   0  0  1   0 -1  0       1  0  0   0  0 -1   0  1  0
                      -1  0  0   0  0 -1   0  1  0       1  0  0   0  0  1   0 -1  0
                       1  0  0   0  0 -1   0 -1  0      -1  0  0   0  0  1   0  1  0
                       0  1  0   0  0  1   1  0  0       0 -1  0   0  0 -1  -1  0  0
                       0 -1  0   0  0  1  -1  0  0       0  1  0   0  0 -1   1  0  0
                       0 -1  0   0  0 -1   1  0  0       0  1  0   0  0  1  -1  0  0
                       0  1  0   0  0 -1  -1  0  0       0 -1  0   0  0  1   1  0  0
                       0  0  1   0  1  0   1  0  0       0  0 -1   0 -1  0  -1  0  0
                       0  0 -1   0  1  0  -1  0  0       0  0  1   0 -1  0   1  0  0
                       0  0 -1   0 -1  0   1  0  0       0  0  1   0  1  0  -1  0  0
                       0  0  1   0 -1  0  -1  0  0       0  0 -1   0  1  0   1  0  0
           tolvrs1     1.00000000E-18
           tolvrs2     0.00000000E+00
           tolwfr1     0.00000000E+00
           tolwfr2     1.00000000E-12
           tsmear      3.58000000E-02 Hartree
            typat      1  2  2  2
              wtk1       0.02344    0.02344    0.09375    0.03125    0.04688    0.09375
                         0.09375    0.09375    0.04688    0.09375    0.09375    0.09375
                         0.02344    0.09375    0.03125    0.02344
              wtk2       1.00000    1.00000    1.00000    1.00000    1.00000    1.00000
                         1.00000    1.00000    1.00000    1.00000    1.00000    1.00000
                         1.00000    1.00000    1.00000    1.00000    1.00000    1.00000
                         1.00000    1.00000    1.00000    1.00000    1.00000    1.00000
                         1.00000    1.00000    1.00000    1.00000    1.00000    1.00000
                         1.00000    1.00000    1.00000    1.00000    1.00000    1.00000
                         1.00000    1.00000    1.00000    1.00000    1.00000    1.00000
                         1.00000    1.00000    1.00000    1.00000    1.00000    1.00000
                         1.00000    1.00000
                       outvars : Printing only first  50 k-points.
           xangst      0.0000000000E+00  0.0000000000E+00  0.0000000000E+00
                       1.7701242216E+00  1.7701242216E+00  0.0000000000E+00
                       0.0000000000E+00  1.7701242216E+00  1.7701242216E+00
                       1.7701242216E+00  0.0000000000E+00  1.7701242216E+00
            xcart      0.0000000000E+00  0.0000000000E+00  0.0000000000E+00
                       3.3450500000E+00  3.3450500000E+00  0.0000000000E+00
                       0.0000000000E+00  3.3450500000E+00  3.3450500000E+00
                       3.3450500000E+00  0.0000000000E+00  3.3450500000E+00
             xred      0.0000000000E+00  0.0000000000E+00  0.0000000000E+00
                       5.0000000000E-01  5.0000000000E-01  0.0000000000E+00
                       0.0000000000E+00  5.0000000000E-01  5.0000000000E-01
                       5.0000000000E-01  0.0000000000E+00  5.0000000000E-01
            znucl       26.00000   28.00000

================================================================================

 chkinp: Checking input parameters for consistency, jdtset=   1.

 chkinp: Checking input parameters for consistency, jdtset=   2.

================================================================================
== DATASET  1 ==================================================================
-   nproc =    1

 Exchange-correlation functional for the present dataset will be:
  GGA: Perdew-Burke-Ernzerhof functional - ixc=11
 Citation for XC functional:
  J.P.Perdew, K.Burke, M.Ernzerhof, PRL 77, 3865 (1996)

 Real(R)+Recip(G) space primitive vectors, cartesian coordinates (Bohr,Bohr^-1):
 R(1)=  6.6901000  0.0000000  0.0000000  G(1)=  0.1494746  0.0000000  0.0000000
 R(2)=  0.0000000  6.6901000  0.0000000  G(2)=  0.0000000  0.1494746  0.0000000
 R(3)=  0.0000000  0.0000000  6.6901000  G(3)=  0.0000000  0.0000000  0.1494746
 Unit cell volume ucvol=  2.9943174E+02 bohr^3
 Angles (23,13,12)=  9.00000000E+01  9.00000000E+01  9.00000000E+01 degrees

 getcut: wavevector=  0.0000  0.0000  0.0000  ngfft=  48  48  48
         ecut(hartree)=     60.000   => boxcut(ratio)=   2.05763

--- Pseudopotential description ------------------------------------------------
- pspini: atom type   1  psp file is 26fe.pspnc
- pspatm: opening atomic psp file    26fe.pspnc
-  Troullier-Martins psp for element  Fe        Thu Oct 27 17:35:05 EDT 1994
- 26.00000   8.00000    940714                znucl, zion, pspdat
    1    1    2    0      2001   0.00000      pspcod,pspxc,lmax,lloc,mmax,r2well
    0   4.333  10.868    0   2.2918558        l,e99.0,e99.9,nproj,rcpsp
   0.00000000   0.00000000   0.00000000   0.00000000     rms, ekb1, ekb2, epsatm
    1   1.213   4.197    1   2.8345121        l,e99.0,e99.9,nproj,rcpsp
   0.00000000   0.00000000   0.00000000   0.00000000     rms, ekb1, ekb2, epsatm
    2  18.664  23.972    1   2.2918558        l,e99.0,e99.9,nproj,rcpsp
   0.00000000   0.00000000   0.00000000   0.00000000     rms, ekb1, ekb2, epsatm
    1.56404770202776    2.06158206779471    6.88331421535388   rchrg,fchrg,qchrg
 pspatm: epsatm=   62.03296659
         --- l  ekb(1:nproj) -->
             1    1.561134
             2   -8.115829
 pspatm: atomic psp has been read  and splines computed

- pspini: atom type   2  psp file is 28ni.pspnc
- pspatm: opening atomic psp file    28ni.pspnc
-  Troullier-Martins psp for element  Ni        Thu Oct 27 17:35:45 EDT 1994
- 28.00000  10.00000    940714                znucl, zion, pspdat
    1    1    2    0      2001   0.00000      pspcod,pspxc,lmax,lloc,mmax,r2well
    0   3.208   7.754    0   2.9454613        l,e99.0,e99.9,nproj,rcpsp
   0.00000000   0.00000000   0.00000000   0.00000000     rms, ekb1, ekb2, epsatm
    1   1.322   4.017    1   2.9454613        l,e99.0,e99.9,nproj,rcpsp
   0.00000000   0.00000000   0.00000000   0.00000000     rms, ekb1, ekb2, epsatm
    2  19.888  25.467    1   2.2939080        l,e99.0,e99.9,nproj,rcpsp
   0.00000000   0.00000000   0.00000000   0.00000000     rms, ekb1, ekb2, epsatm
    1.28166113122492    4.34983513722262    7.99170458696768   rchrg,fchrg,qchrg
 pspatm: epsatm=   55.54189636
         --- l  ekb(1:nproj) -->
             1    0.797683
             2   -7.688688
 pspatm: atomic psp has been read  and splines computed

   8.68902892E+03                                ecore*ucvol(ha*bohr**3)
--------------------------------------------------------------------------------

P newkpt: treating     45 bands with npw=    6671 for ikpt=   1 by node    0
P newkpt: treating     45 bands with npw=    6624 for ikpt=   2 by node    0
P newkpt: treating     45 bands with npw=    6656 for ikpt=   3 by node    0
P newkpt: treating     45 bands with npw=    6658 for ikpt=   4 by node    0
P newkpt: treating     45 bands with npw=    6648 for ikpt=   5 by node    0
P newkpt: treating     45 bands with npw=    6662 for ikpt=   6 by node    0
P newkpt: treating     45 bands with npw=    6655 for ikpt=   7 by node    0
P newkpt: treating     45 bands with npw=    6642 for ikpt=   8 by node    0
P newkpt: treating     45 bands with npw=    6648 for ikpt=   9 by node    0
P newkpt: treating     45 bands with npw=    6630 for ikpt=  10 by node    0
P newkpt: treating     45 bands with npw=    6623 for ikpt=  11 by node    0
P newkpt: treating     45 bands with npw=    6645 for ikpt=  12 by node    0
P newkpt: treating     45 bands with npw=    6636 for ikpt=  13 by node    0
P newkpt: treating     45 bands with npw=    6652 for ikpt=  14 by node    0
P newkpt: treating     45 bands with npw=    6668 for ikpt=  15 by node    0
P newkpt: treating     45 bands with npw=    6672 for ikpt=  16 by node    0

 setup2: Arith. and geom. avg. npw (full set) are    6647.414    6647.400

================================================================================

     iter   Etot(hartree)      deltaE(h)  residm     vres2
 ETOT  1  -146.12176682479    -1.461E+02 7.507E-02 3.059E+04
 ETOT  2  -147.17005218499    -1.048E+00 2.664E-02 2.116E+04
 ETOT  3  -145.15285305585     2.017E+00 6.254E-02 5.596E+04
 ETOT  4  -150.99933212609    -5.846E+00 1.153E-02 6.871E+03
 ETOT  5  -150.88256413762     1.168E-01 1.251E-03 7.749E+03
 ETOT  6  -151.27515235829    -3.926E-01 4.616E-03 5.125E+03
 ETOT  7  -151.92822590200    -6.531E-01 1.949E-03 7.769E+01
 ETOT  8  -151.91630946729     1.192E-02 5.044E-04 1.789E+02
 ETOT  9  -151.93915270962    -2.284E-02 7.816E-04 1.493E+00
 ETOT 10  -151.93910699383     4.572E-05 2.880E-04 1.864E+00
 ETOT 11  -151.93934255160    -2.356E-04 2.991E-04 5.203E-02
 ETOT 12  -151.93934927887    -6.727E-06 3.841E-04 6.830E-07
 ETOT 13  -151.93934927892    -4.434E-11 3.046E-04 3.658E-07
 ETOT 14  -151.93934927896    -4.414E-11 3.557E-04 1.949E-08
 ETOT 15  -151.93934927896    -3.553E-12 2.221E-04 1.716E-11
 ETOT 16  -151.93934927897    -2.558E-13 2.403E-04 6.903E-14
 ETOT 17  -151.93934927896     9.379E-13 1.276E-04 4.080E-16
 ETOT 18  -151.93934927896     4.036E-12 1.327E-04 1.027E-17
 ETOT 19  -151.93934927896    -1.421E-12 6.408E-05 2.530E-20

 At SCF step   19       vres2   =  2.53E-20 < tolvrs=  1.00E-18 =>converged.

 Cartesian components of stress tensor (hartree/bohr^3)
  sigma(1 1)= -3.70830098E-07  sigma(3 2)=  0.00000000E+00
  sigma(2 2)= -3.70830098E-07  sigma(3 1)=  0.00000000E+00
  sigma(3 3)= -3.70830098E-07  sigma(2 1)=  0.00000000E+00

================================================================================

 ----iterations are completed or convergence reached----

 Mean square residual over all n,k,spin=   1.9630E-07; max=  6.4082E-05
   0.0000  0.0000  0.1250    1  3.67980E-06 kpt; spin; max resid(k); each band:
  1.72E-24 2.75E-24 1.99E-24 2.88E-24 1.50E-24 1.52E-24 1.52E-24 1.64E-24
  1.72E-24 1.79E-24 3.20E-24 3.15E-24 2.19E-25 2.16E-25 6.19E-26 3.41E-27
  2.38E-24 2.43E-24 2.18E-24 2.19E-24 2.49E-24 6.67E-25 6.73E-25 6.87E-25
  2.08E-24 3.85E-24 3.06E-24 3.12E-25 4.41E-25 4.46E-25 8.79E-25 5.53E-25
  5.64E-25 6.92E-25 2.39E-24 1.43E-24 7.46E-25 7.05E-25 1.08E-25 3.69E-24
  1.11E-24 6.42E-25 6.51E-25 1.29E-15 3.68E-06
   0.0000  0.0000  0.3750    1  1.15261E-14 kpt; spin; max resid(k); each band:
  1.81E-24 2.07E-24 3.37E-24 2.15E-24 1.24E-24 1.58E-24 1.54E-24 2.01E-24
  1.50E-24 1.44E-24 2.91E-24 1.46E-24 1.46E-24 2.40E-24 1.86E-24 3.37E-24
  1.10E-24 1.09E-24 3.86E-27 4.21E-25 2.94E-24 2.55E-24 7.82E-25 7.61E-25
  6.93E-25 6.84E-25 4.08E-24 1.81E-24 1.12E-24 1.66E-24 1.92E-24 6.53E-25
  6.05E-25 6.98E-25 5.44E-25 3.18E-25 4.03E-24 6.87E-25 9.60E-25 1.11E-24
  1.41E-24 1.15E-24 8.60E-25 2.85E-24 1.15E-14
   0.1250  0.0000  0.2500    1  8.20482E-09 kpt; spin; max resid(k); each band:
  1.73E-24 2.75E-24 3.20E-24 2.64E-24 1.50E-24 1.58E-24 1.43E-24 1.80E-24
  1.83E-24 1.63E-24 7.87E-25 5.00E-25 3.19E-24 2.69E-24 1.18E-24 2.17E-24
  1.68E-25 2.26E-24 1.43E-24 2.43E-24 2.42E-24 1.42E-24 1.29E-24 8.13E-25
  2.46E-24 1.74E-24 2.42E-24 6.22E-25 1.39E-24 2.23E-24 6.32E-25 8.56E-25
  1.13E-24 3.65E-25 1.78E-24 1.51E-24 7.13E-25 2.68E-24 8.69E-25 5.70E-25
  2.93E-24 1.10E-24 3.74E-24 2.35E-20 8.20E-09
   0.1250  0.1250  0.1250    1  3.60801E-18 kpt; spin; max resid(k); each band:
  1.72E-24 1.95E-24 1.95E-24 2.15E-24 1.64E-24 1.47E-24 1.47E-24 1.79E-24
  1.81E-24 1.77E-24 2.34E-24 2.35E-24 1.18E-24 1.19E-24 7.90E-25 1.74E-24
  7.20E-25 2.23E-24 2.23E-24 2.19E-24 2.19E-24 9.56E-25 9.60E-25 1.65E-24
  1.84E-24 1.85E-24 3.61E-24 6.81E-25 6.79E-25 8.70E-25 9.82E-26 5.60E-25
  5.74E-25 8.08E-25 1.33E-24 1.33E-24 2.53E-24 7.51E-25 1.20E-24 1.19E-24
  2.11E-24 7.01E-25 6.90E-25 1.96E-19 3.61E-18
   0.1250  0.0000  0.5000    1  5.04285E-06 kpt; spin; max resid(k); each band:
  2.67E-24 5.66E-25 3.46E-24 2.23E-24 2.12E-25 1.81E-24 2.60E-24 1.92E-24
  5.89E-25 4.39E-25 2.52E-24 2.71E-24 1.31E-24 2.04E-24 2.52E-24 2.85E-24
  3.61E-25 1.47E-24 1.87E-25 6.77E-25 2.79E-24 2.48E-24 1.52E-24 1.16E-24
  9.43E-25 4.91E-25 3.03E-24 1.27E-24 2.28E-24 1.13E-24 2.13E-24 6.30E-25
  6.26E-25 6.79E-25 2.68E-24 2.05E-25 4.03E-25 6.29E-25 2.47E-24 9.67E-25
  1.40E-24 7.81E-24 4.61E-18 2.46E-17 5.04E-06
   0.2500  0.0000  0.3750    1  1.04985E-10 kpt; spin; max resid(k); each band:
  1.61E-24 2.07E-24 3.14E-24 2.33E-24 2.08E-24 1.46E-24 1.22E-24 2.03E-24
  1.66E-24 7.98E-25 2.65E-24 2.31E-24 1.57E-24 3.01E-24 9.49E-25 2.07E-24
  4.28E-25 8.04E-25 1.33E-24 2.48E-24 2.14E-24 1.80E-24 1.75E-24 1.76E-24
  8.45E-25 2.59E-24 7.71E-25 1.76E-24 6.88E-25 1.94E-24 1.75E-24 1.03E-24
  1.31E-24 6.10E-25 1.81E-24 1.49E-24 1.27E-24 5.56E-25 1.78E-24 3.82E-25
  1.23E-24 1.98E-24 1.49E-23 1.24E-18 1.05E-10
   0.1250  0.1250  0.3750    1  5.22478E-05 kpt; spin; max resid(k); each band:
  1.75E-24 2.05E-24 3.29E-24 2.07E-24 1.86E-24 1.35E-24 1.42E-24 2.01E-24
  1.61E-24 1.03E-24 2.76E-24 2.68E-24 1.69E-24 1.27E-24 2.10E-24 2.29E-24
  1.35E-24 1.54E-24 1.28E-24 2.32E-24 1.40E-24 2.36E-24 1.71E-24 1.12E-24
  9.67E-25 1.74E-24 1.50E-24 2.63E-24 9.06E-25 1.49E-24 1.22E-24 9.57E-25
  2.01E-24 6.30E-25 1.94E-24 5.60E-25 1.03E-24 8.79E-25 8.49E-25 1.53E-24
  1.91E-24 1.07E-24 5.55E-18 6.09E-17 5.22E-05
   0.2500  0.1250  0.2500    1  2.16392E-19 kpt; spin; max resid(k); each band:
  1.73E-24 1.76E-24 2.90E-24 2.49E-24 2.32E-24 1.56E-24 1.38E-24 1.83E-24
  1.33E-24 2.11E-24 1.23E-24 1.95E-24 1.31E-24 3.17E-24 1.15E-24 2.17E-24
  1.25E-24 2.18E-24 1.86E-24 1.81E-24 2.15E-24 1.27E-24 1.98E-24 1.46E-24
  1.44E-24 8.25E-25 1.93E-24 1.82E-24 1.49E-24 2.02E-24 6.05E-25 9.82E-25
  1.20E-24 7.29E-25 1.22E-24 1.71E-24 1.02E-24 1.75E-24 6.20E-25 5.32E-25
  1.34E-24 2.96E-24 1.51E-24 1.24E-20 2.16E-19
   0.3750  0.0000  0.5000    1  6.51069E-09 kpt; spin; max resid(k); each band:
  2.02E-24 9.09E-25 1.69E-24 1.92E-24 3.23E-25 2.76E-24 2.10E-24 2.12E-24
  7.35E-25 3.96E-25 2.71E-24 2.31E-24 2.95E-24 3.01E-24 2.49E-24 8.91E-25
  9.92E-26 4.34E-25 3.56E-25 1.35E-24 2.17E-24 1.77E-24 1.87E-24 1.76E-24
  6.27E-25 1.03E-24 2.82E-24 1.31E-24 5.59E-25 2.63E-24 9.87E-25 8.85E-25
  1.83E-24 7.05E-25 2.16E-24 2.20E-25 1.53E-24 2.79E-25 1.11E-24 6.47E-25
  8.86E-25 4.42E-24 1.65E-14 7.50E-13 6.51E-09
   0.2500  0.1250  0.5000    1  1.69025E-07 kpt; spin; max resid(k); each band:
  2.19E-24 8.01E-25 2.18E-24 1.79E-24 2.49E-24 2.21E-24 5.68E-25 2.58E-24
  1.61E-24 8.71E-25 2.58E-24 2.65E-24 1.86E-24 2.35E-24 2.85E-24 2.60E-24
  1.26E-24 1.70E-24 8.33E-25 1.54E-24 2.14E-24 2.35E-24 1.97E-24 1.38E-24
  1.14E-24 1.33E-24 1.63E-24 1.92E-24 1.46E-24 6.63E-25 2.01E-24 8.61E-25
  1.44E-24 6.73E-25 2.29E-24 2.34E-25 9.40E-25 6.23E-25 4.77E-25 1.53E-24
  3.23E-21 1.26E-20 6.13E-15 4.77E-14 1.69E-07
   0.3750  0.1250  0.3750    1  6.40815E-05 kpt; spin; max resid(k); each band:
  1.49E-24 1.08E-24 2.78E-24 1.62E-24 3.46E-24 1.87E-24 1.74E-24 2.06E-24
  1.54E-24 2.07E-24 8.85E-25 2.22E-24 2.89E-24 2.03E-24 2.61E-24 1.99E-24
  1.23E-24 1.19E-24 1.12E-24 1.88E-24 2.17E-24 1.62E-24 2.10E-24 1.89E-24
  1.29E-24 8.55E-25 1.91E-24 1.42E-24 1.54E-24 8.82E-25 1.45E-24 1.07E-24
  9.18E-25 1.58E-24 7.26E-25 1.49E-24 1.26E-24 4.72E-25 1.12E-24 7.50E-24
  7.44E-24 5.55E-21 2.55E-18 9.57E-17 6.41E-05
   0.2500  0.2500  0.3750    1  4.11756E-06 kpt; spin; max resid(k); each band:
  1.51E-24 1.76E-24 2.45E-24 9.74E-25 3.55E-24 2.18E-24 1.95E-24 1.72E-24
  1.56E-24 1.45E-24 2.66E-24 2.17E-24 1.49E-24 1.32E-24 2.17E-24 2.52E-24
  1.30E-24 1.68E-24 2.11E-24 1.64E-24 1.81E-24 1.76E-24 2.20E-24 1.31E-24
  9.70E-25 1.84E-24 1.57E-24 1.29E-24 1.17E-24 1.89E-24 7.11E-25 9.66E-25
  1.78E-24 5.63E-25 1.72E-24 1.15E-24 4.66E-25 6.47E-25 1.55E-24 8.26E-25
  5.37E-18 3.70E-08 1.85E-07 4.12E-06 1.08E-06
   0.5000  0.1250  0.5000    1  1.45871E-07 kpt; spin; max resid(k); each band:
  6.40E-25 6.40E-25 1.48E-24 2.60E-24 1.97E-24 2.01E-24 2.01E-24 2.19E-24
  4.88E-25 4.89E-25 1.41E-24 1.94E-24 1.39E-24 2.79E-24 2.79E-24 1.53E-24
  8.66E-25 6.01E-25 6.01E-25 1.53E-24 1.77E-24 1.77E-24 2.31E-24 1.56E-24
  1.69E-24 8.49E-25 8.50E-25 1.84E-24 1.67E-24 7.29E-25 7.29E-25 9.19E-25
  4.47E-25 4.46E-25 2.82E-24 8.07E-25 2.76E-25 6.64E-25 6.63E-25 1.45E-26
  1.49E-17 9.69E-18 3.41E-17 1.34E-15 1.46E-07
   0.3750  0.2500  0.5000    1  5.94237E-07 kpt; spin; max resid(k); each band:
  1.30E-24 1.38E-24 6.50E-25 2.38E-24 3.29E-24 1.90E-24 3.63E-24 1.79E-24
  8.07E-25 2.04E-24 1.56E-24 1.56E-24 1.33E-24 2.52E-24 2.18E-24 2.33E-24
  1.16E-24 1.93E-24 1.06E-24 1.78E-24 1.75E-24 2.06E-24 2.09E-24 1.56E-24
  1.19E-24 1.57E-24 1.44E-24 1.53E-24 1.63E-24 7.28E-25 1.24E-24 1.77E-24
  6.50E-25 6.26E-25 2.02E-24 2.71E-25 1.43E-25 8.91E-25 9.77E-25 3.88E-25
  5.64E-15 4.32E-13 6.62E-13 1.07E-12 5.94E-07
   0.3750  0.3750  0.3750    1  6.42093E-06 kpt; spin; max resid(k); each band:
  1.38E-24 5.97E-25 5.98E-25 2.70E-24 2.59E-24 2.03E-24 2.03E-24 1.17E-24
  1.86E-24 1.86E-24 1.91E-24 1.91E-24 2.30E-24 1.09E-24 1.09E-24 7.84E-25
  1.05E-24 2.11E-24 2.11E-24 1.38E-24 1.38E-24 1.49E-24 1.49E-24 2.07E-24
  9.82E-25 9.81E-25 2.44E-24 1.54E-24 7.95E-25 7.95E-25 1.97E-24 2.63E-25
  4.20E-25 4.20E-25 1.97E-24 4.55E-25 4.55E-25 1.41E-24 5.39E-25 2.68E-25
  1.91E-14 3.09E-14 3.19E-11 6.71E-08 6.42E-06
   0.5000  0.3750  0.5000    1  3.02123E-06 kpt; spin; max resid(k); each band:
  6.45E-25 6.46E-25 6.62E-25 2.64E-24 1.59E-24 1.60E-24 1.57E-24 1.25E-24
  1.51E-24 1.51E-24 2.47E-24 2.39E-24 1.19E-24 1.19E-24 2.27E-24 1.35E-24
  1.19E-24 1.25E-24 1.25E-24 2.39E-24 1.31E-24 1.31E-24 1.65E-24 1.83E-24
  1.26E-24 1.00E-24 1.00E-24 2.50E-24 2.25E-24 3.91E-25 3.92E-25 4.72E-25
  1.08E-24 2.90E-25 2.92E-25 1.34E-25 2.78E-25 5.13E-27 3.10E-25 3.18E-25
  9.47E-09 3.00E-09 3.02E-06 3.97E-09 4.15E-07
 reduced coordinates (array xred) for    4 atoms
       0.000000000000      0.000000000000      0.000000000000
       0.500000000000      0.500000000000      0.000000000000
       0.000000000000      0.500000000000      0.500000000000
       0.500000000000      0.000000000000      0.500000000000
 rms dE/dt=  0.0000E+00; max dE/dt=  0.0000E+00; dE/dt below (all hartree)
    1       0.000000000000      0.000000000000      0.000000000000
    2       0.000000000000      0.000000000000      0.000000000000
    3       0.000000000000      0.000000000000      0.000000000000
    4       0.000000000000      0.000000000000      0.000000000000

 cartesian coordinates (angstrom) at end:
    1      0.00000000000000     0.00000000000000     0.00000000000000
    2      1.77012422159398     1.77012422159398     0.00000000000000
    3      0.00000000000000     1.77012422159398     1.77012422159398
    4      1.77012422159398     0.00000000000000     1.77012422159398

 cartesian forces (hartree/bohr) at end:
    1     -0.00000000000000    -0.00000000000000    -0.00000000000000
    2     -0.00000000000000    -0.00000000000000    -0.00000000000000
    3     -0.00000000000000    -0.00000000000000    -0.00000000000000
    4     -0.00000000000000    -0.00000000000000    -0.00000000000000
 frms,max,avg= 0.0000000E+00 0.0000000E+00   0.000E+00  0.000E+00  0.000E+00 h/b

 cartesian forces (eV/Angstrom) at end:
    1     -0.00000000000000    -0.00000000000000    -0.00000000000000
    2     -0.00000000000000    -0.00000000000000    -0.00000000000000
    3     -0.00000000000000    -0.00000000000000    -0.00000000000000
    4     -0.00000000000000    -0.00000000000000    -0.00000000000000
 frms,max,avg= 0.0000000E+00 0.0000000E+00   0.000E+00  0.000E+00  0.000E+00 e/A
 length scales=  6.690100000000  6.690100000000  6.690100000000 bohr
              =  3.540248443188  3.540248443188  3.540248443188 angstroms
 prteigrs : about to open file fenio_DS1_EIG
 Fermi (or HOMO) energy (eV) =  -6.06096   Average Vxc (eV)= -13.75550
 Eigenvalues (   eV  ) for nkpt=  16  k points:
 kpt#   1, nband= 45, wtk=  0.02344, kpt=  0.0000  0.0000  0.1250 (reduced coord)
 -14.83669 -10.50885 -10.41169 -10.41035  -9.87202  -9.86620  -9.86620  -8.19851
  -8.07371  -8.07371  -7.14892  -7.05689  -6.65492  -6.65492  -6.62734  -6.34701
  -5.95237  -5.90447  -5.79855  -5.79855  -5.49091  -4.43605  -2.87032  -2.87032
   3.87993   4.00275   5.22008   7.95206   7.97092   7.97092   8.47894   9.27888
   9.27888  16.46550  16.48650  17.40440  17.53819  17.53819  17.90659  18.70777
  20.85202  21.09935  21.09935  27.60976  29.57177
 kpt#   2, nband= 45, wtk=  0.02344, kpt=  0.0000  0.0000  0.3750 (reduced coord)
 -13.23641 -11.02647  -9.83364  -9.74418  -9.42338  -9.31577  -9.31577  -8.69886
  -8.19583  -8.19583  -7.63159  -7.60824  -7.60824  -7.37210  -7.16054  -6.91394
  -6.59677  -6.59677  -6.34623  -6.26983  -6.16391  -5.50362   0.21228   0.21228
   4.10218   4.10218   4.23547   4.28906   5.59781   6.20243  11.67575  11.89556
  11.89556  16.35397  16.35397  16.51520  16.93559  17.47499  17.64334  21.91071
  23.15116  23.15116  24.04467  24.97365  30.60863
 kpt#   3, nband= 45, wtk=  0.09375, kpt=  0.1250  0.0000  0.2500 (reduced coord)
 -14.00946 -10.44944 -10.10414 -10.03614  -9.64032  -9.61736  -9.60470  -8.42600
  -7.95515  -7.91904  -7.58569  -7.46417  -7.34651  -7.11614  -6.86853  -6.83188
  -6.49746  -6.22471  -6.13777  -6.08993  -5.65078  -5.14243  -2.48827  -1.05449
   3.71278   4.32044   5.57007   6.46025   7.18791   8.23667   9.28418   9.34263
   9.46532  16.01773  16.26552  17.76146  17.81264  18.25371  20.09777  20.31454
  20.91015  21.70802  23.56509  26.01338  29.12900
 kpt#   4, nband= 45, wtk=  0.03125, kpt=  0.1250  0.1250  0.1250 (reduced coord)
 -14.41786 -10.29636 -10.29636 -10.28979  -9.75838  -9.74008  -9.74008  -8.28834
  -8.01126  -8.01126  -7.15770  -7.15770  -7.11235  -7.11235  -6.82081  -6.55801
  -6.42626  -6.09112  -6.09112  -5.76649  -5.76649  -3.30072  -3.30072  -3.12472
   5.29061   5.29061   5.45249   6.17708   6.17708   6.61858   9.63068  10.07588
  10.07588  15.75442  16.35245  16.35245  17.00513  18.87737  20.09126  20.09126
  21.08529  21.76738  21.76738  26.23712  29.31528
 kpt#   5, nband= 45, wtk=  0.04688, kpt=  0.1250  0.0000  0.5000 (reduced coord)
 -11.99287 -11.78621  -9.60161  -9.46905  -9.15354  -8.98847  -8.95443  -8.87760
  -8.80903  -8.70671  -7.94423  -7.88896  -7.46312  -7.32249  -7.26076  -7.10194
  -6.86291  -6.47579  -6.39120  -6.38515  -6.19139  -5.65221   0.38685   0.44449
   2.38604   2.42015   4.68443   5.44866   6.65420   7.34782  12.22790  12.28128
  12.61440  12.65900  15.53630  15.95198  18.34924  18.96672  19.64616  20.47781
  24.05175  24.27362  26.63497  27.00595  29.56174
 kpt#   6, nband= 45, wtk=  0.09375, kpt=  0.2500  0.0000  0.3750 (reduced coord)
 -12.51582 -10.49244  -9.67571  -9.47351  -9.32764  -9.27167  -9.15823  -8.72510
  -8.60157  -8.28145  -8.19702  -7.93199  -7.59865  -7.44779  -7.24257  -6.98139
  -6.85120  -6.37906  -6.36812  -6.28463  -5.99798  -5.32716  -2.95821  -0.19609
   1.51117   4.75192   5.24786   6.53252   8.62611   8.99134   9.29660  11.50489
  12.05590  12.10514  12.34206  18.39127  20.15273  20.83428  21.67913  21.93116
  23.59176  23.68779  24.88863  26.76315  28.70160
 kpt#   7, nband= 45, wtk=  0.09375, kpt=  0.1250  0.1250  0.3750 (reduced coord)
 -12.87364 -10.75990  -9.70071  -9.61480  -9.35879  -9.30100  -9.27802  -8.69547
  -8.35713  -8.27793  -7.90982  -7.80511  -7.70552  -7.22263  -7.21848  -7.16370
  -6.61604  -6.48677  -6.37056  -6.09972  -5.88195  -5.71005  -0.89448  -0.87663
   2.40711   2.47086   6.10475   6.33099   8.22146   8.28808   8.65924  11.72321
  11.99122  12.47295  16.75266  16.87650  17.50532  20.65515  20.66179  21.00006
  21.30232  23.67730  26.89788  27.16268  29.47004
 kpt#   8, nband= 45, wtk=  0.09375, kpt=  0.2500  0.1250  0.2500 (reduced coord)
 -13.24261 -10.05844 -10.02928  -9.79594  -9.46903  -9.41336  -9.38923  -8.53339
  -8.12869  -8.04637  -7.90082  -7.86247  -7.61002  -7.32524  -7.22280  -7.04710
  -6.57487  -6.43090  -6.38562  -5.98016  -5.86671  -4.09369  -3.72667  -1.38243
   2.09903   4.93278   5.07727   6.04716   8.63367   8.87922  10.24535  10.60020
  11.43909  11.87400  16.60106  16.75663  17.87793  18.41101  20.57351  23.59633
  23.66914  24.15794  24.47133  26.96354  27.06719
 kpt#   9, nband= 45, wtk=  0.04688, kpt=  0.3750  0.0000  0.5000 (reduced coord)
 -10.84132 -10.69510  -9.55765  -9.55287  -8.97321  -8.93068  -8.92247  -8.85225
  -8.72700  -8.69023  -8.34326  -8.25983  -7.58409  -7.52874  -7.44578  -7.34711
  -7.18178  -6.53861  -6.53756  -6.37750  -5.44187  -5.42509  -3.37364  -3.30426
   4.45697   4.71943   5.86179   6.39891   7.95981   8.34061   8.36784   9.04919
  13.82806  14.42932  16.90132  17.12386  19.70339  19.73371  21.94729  22.30216
  24.29501  24.55922  27.41931  27.61000  28.49082
 kpt#  10, nband= 45, wtk=  0.09375, kpt=  0.2500  0.1250  0.5000 (reduced coord)
 -11.41628 -11.23375  -9.43779  -9.38541  -9.22529  -9.11739  -9.00001  -8.81958
  -8.64849  -8.48705  -8.12894  -8.12101  -7.60003  -7.54421  -7.48065  -7.15744
  -6.78847  -6.38722  -6.38299  -6.02319  -6.01608  -5.91423  -1.76785  -1.70731
   1.60418   1.82148   7.27774   7.53951   7.67343   8.17935  10.20439  10.83340
  13.00787  13.45682  16.12740  16.44929  19.25130  19.78425  21.22807  21.40845
  25.05607  25.41841  26.52759  26.61407  28.12325
 kpt#  11, nband= 45, wtk=  0.09375, kpt=  0.3750  0.1250  0.3750 (reduced coord)
 -11.60856 -10.09101  -9.99487  -9.58488  -9.07274  -8.95423  -8.90899  -8.68821
  -8.58117  -8.48014  -8.21767  -8.04472  -7.78451  -7.61745  -7.42649  -7.34616
  -6.89269  -6.52895  -6.27778  -6.11602  -6.01506  -4.77494  -4.12765  -2.13186
   1.47301   4.25445   4.37740   7.19431   7.64628   9.83771  10.20790  13.03225
  13.07911  13.30317  14.77491  17.00303  19.54216  20.75783  21.05541  22.51715
  24.42832  25.56654  25.86466  26.45800  29.03865
 kpt#  12, nband= 45, wtk=  0.09375, kpt=  0.2500  0.2500  0.3750 (reduced coord)
 -11.94691 -10.30957  -9.79452  -9.76510  -9.10895  -8.98229  -8.95885  -8.57187
  -8.37978  -8.36299  -7.99740  -7.89431  -7.88572  -7.69425  -7.49990  -7.32652
  -6.57405  -6.50930  -6.37095  -5.97549  -5.91016  -4.98800  -2.72459  -2.71179
   1.23566   1.39268   4.00221   7.12506   9.76409  10.00949  12.11843  12.52259
  12.80676  14.10332  16.84914  17.32619  18.21347  18.37664  18.65948  21.52717
  25.01401  27.91907  28.02038  28.15094  28.35372
 kpt#  13, nband= 45, wtk=  0.02344, kpt=  0.5000  0.1250  0.5000 (reduced coord)
 -10.25553 -10.25553 -10.20306 -10.06608  -8.70151  -8.65660  -8.65660  -8.64365
  -8.46993  -8.46993  -8.40326  -8.18078  -7.86379  -7.74830  -7.74830  -7.45604
  -7.07021  -6.44662  -6.44662  -6.40875  -5.02910  -5.02910  -4.32236  -4.20312
   3.76009   4.04304   4.04304   4.55056   9.43905   9.61789   9.61789  10.52795
  17.73698  17.73698  17.83499  17.96431  18.28280  18.44088  18.44088  18.68622
  26.56789  26.56789  26.74246  27.13470  28.87570
 kpt#  14, nband= 45, wtk=  0.09375, kpt=  0.3750  0.2500  0.5000 (reduced coord)
 -10.78583 -10.67899 -10.08125 -10.06416  -8.71958  -8.61398  -8.42464  -8.29108
  -8.26426  -8.18242  -8.04388  -8.00962  -7.93989  -7.80218  -7.79214  -7.54321
  -6.70006  -6.29407  -6.18361  -5.98285  -5.65307  -5.62161  -3.71133  -3.66749
   0.90948   1.15624   3.37742   3.77482  11.57310  12.01868  14.27422  14.38958
  14.75487  14.97812  17.00315  17.16519  19.03896  19.11987  19.60839  19.83773
  25.40563  26.01060  26.09610  26.37422  27.37990
 kpt#  15, nband= 45, wtk=  0.03125, kpt=  0.3750  0.3750  0.3750 (reduced coord)
 -11.02999 -10.33505 -10.33505 -10.26871  -8.51789  -8.50895  -8.50895  -8.10717
  -8.05959  -8.05959  -7.93518  -7.93518  -7.88563  -7.71277  -7.71277  -7.38433
  -6.51898  -6.29890  -6.29890  -5.90747  -5.90747  -4.49967  -4.49967  -4.35711
   0.80615   0.80615   1.07326   3.36050  13.99794  13.99794  14.22921  16.14853
  16.61671  16.61671  16.76606  16.99541  16.99541  17.63872  19.86704  19.86704
  25.28737  25.28737  26.54481  27.33944  27.34105
 kpt#  16, nband= 45, wtk=  0.02344, kpt=  0.5000  0.3750  0.5000 (reduced coord)
 -10.59460 -10.59460 -10.59096 -10.46945  -8.37183  -8.37183  -8.27870  -8.19972
  -8.11341  -8.11341  -8.02288  -7.90847  -7.19376  -7.19376  -7.15829  -7.04877
  -6.60412  -6.07172  -6.07172  -5.87286  -5.62621  -5.62621  -5.18970  -5.13368
   0.64546   0.70812   0.70812   1.16868  15.61508  15.61541  15.61541  15.91467
  17.66053  17.83835  17.83835  18.34739  18.78530  19.01114  19.32388  19.32388
  24.91722  25.24924  25.24952  25.31531  25.31536
 Total charge density [el/Bohr^3]
,     Maximum=    1.0859E+00  at reduced coord.    0.5000    0.5417    0.8958
,Next maximum=    1.0859E+00  at reduced coord.    0.5417    0.5000    0.8958
,     Minimum=    9.2506E-04  at reduced coord.    0.0000    0.0000    0.0000
,Next minimum=    3.9311E-03  at reduced coord.    0.5000    0.5000    0.0000
,  Integrated=    3.8000E+01

--------------------------------------------------------------------------------
 Components of total free energy (in Hartree) :

    Kinetic energy  =  1.41984437436415E+02
    Hartree energy  =  2.21242017584782E+01
    XC energy       = -5.73489169896167E+01
    Ewald energy    = -1.24205881571195E+02
    PspCore energy  =  2.90183967491178E+01
    Loc. psp. energy= -1.29696973829690E+01
    NL   psp  energy= -1.50425379107850E+02
    >>>>> Internal E= -1.51822839107620E+02

    -kT*entropy     = -1.16510171341985E-01
    >>>>>>>>> Etotal= -1.51939349278962E+02

 Other information on the energy :
    Total energy(eV)= -4.13447995666844E+03 ; Band energy (Ha)=  -1.1707099806E+01
--------------------------------------------------------------------------------

 Cartesian components of stress tensor (hartree/bohr^3)
  sigma(1 1)= -3.70830098E-07  sigma(3 2)=  0.00000000E+00
  sigma(2 2)= -3.70830098E-07  sigma(3 1)=  0.00000000E+00
  sigma(3 3)= -3.70830098E-07  sigma(2 1)=  0.00000000E+00

-Cartesian components of stress tensor (GPa)         [Pressure=  1.0910E-02 GPa]
- sigma(1 1)= -1.09101963E-02  sigma(3 2)=  0.00000000E+00
- sigma(2 2)= -1.09101963E-02  sigma(3 1)=  0.00000000E+00
- sigma(3 3)= -1.09101963E-02  sigma(2 1)=  0.00000000E+00

================================================================================
== DATASET  2 ==================================================================
-   nproc =    1

 mkfilename : getden/=0, take file _DEN from output of DATASET   1.

 Exchange-correlation functional for the present dataset will be:
  GGA: Perdew-Burke-Ernzerhof functional - ixc=11
 Citation for XC functional:
  J.P.Perdew, K.Burke, M.Ernzerhof, PRL 77, 3865 (1996)

 Real(R)+Recip(G) space primitive vectors, cartesian coordinates (Bohr,Bohr^-1):
 R(1)=  6.6901000  0.0000000  0.0000000  G(1)=  0.1494746  0.0000000  0.0000000
 R(2)=  0.0000000  6.6901000  0.0000000  G(2)=  0.0000000  0.1494746  0.0000000
 R(3)=  0.0000000  0.0000000  6.6901000  G(3)=  0.0000000  0.0000000  0.1494746
 Unit cell volume ucvol=  2.9943174E+02 bohr^3
 Angles (23,13,12)=  9.00000000E+01  9.00000000E+01  9.00000000E+01 degrees

 getcut: wavevector=  0.0000  0.0000  0.0000  ngfft=  48  48  48
         ecut(hartree)=     60.000   => boxcut(ratio)=   2.05763
--------------------------------------------------------------------------------

P newkpt: treating     45 bands with npw=    3334 for ikpt=   1 by node    0
P newkpt: treating     45 bands with npw=    6659 for ikpt=   2 by node    0
P newkpt: treating     45 bands with npw=    6675 for ikpt=   3 by node    0
P newkpt: treating     45 bands with npw=    6667 for ikpt=   4 by node    0
P newkpt: treating     45 bands with npw=    6683 for ikpt=   5 by node    0
P newkpt: treating     45 bands with npw=    6655 for ikpt=   6 by node    0
P newkpt: treating     45 bands with npw=    6655 for ikpt=   7 by node    0
P newkpt: treating     45 bands with npw=    6640 for ikpt=   8 by node    0
P newkpt: treating     45 bands with npw=    6628 for ikpt=   9 by node    0
P newkpt: treating     45 bands with npw=    6604 for ikpt=  10 by node    0
P newkpt: treating     45 bands with npw=    3284 for ikpt=  11 by node    0
P newkpt: treating     45 bands with npw=    6622 for ikpt=  12 by node    0
P newkpt: treating     45 bands with npw=    6632 for ikpt=  13 by node    0
P newkpt: treating     45 bands with npw=    6642 for ikpt=  14 by node    0
P newkpt: treating     45 bands with npw=    6650 for ikpt=  15 by node    0
P newkpt: treating     45 bands with npw=    6630 for ikpt=  16 by node    0
P newkpt: treating     45 bands with npw=    6632 for ikpt=  17 by node    0
P newkpt: treating     45 bands with npw=    6652 for ikpt=  18 by node    0
P newkpt: treating     45 bands with npw=    6650 for ikpt=  19 by node    0
P newkpt: treating     45 bands with npw=    6644 for ikpt=  20 by node    0
P newkpt: treating     45 bands with npw=    3316 for ikpt=  21 by node    0
P newkpt: treating     45 bands with npw=    6643 for ikpt=  22 by node    0
P newkpt: treating     45 bands with npw=    6632 for ikpt=  23 by node    0
P newkpt: treating     45 bands with npw=    6646 for ikpt=  24 by node    0
P newkpt: treating     45 bands with npw=    6643 for ikpt=  25 by node    0
P newkpt: treating     45 bands with npw=    6672 for ikpt=  26 by node    0
P newkpt: treating     45 bands with npw=    6662 for ikpt=  27 by node    0
P newkpt: treating     45 bands with npw=    6650 for ikpt=  28 by node    0
P newkpt: treating     45 bands with npw=    6655 for ikpt=  29 by node    0
P newkpt: treating     45 bands with npw=    6662 for ikpt=  30 by node    0
P newkpt: treating     45 bands with npw=    6667 for ikpt=  31 by node    0
P newkpt: treating     45 bands with npw=    6643 for ikpt=  32 by node    0
P newkpt: treating     45 bands with npw=    6673 for ikpt=  33 by node    0
P newkpt: treating     45 bands with npw=    6664 for ikpt=  34 by node    0
P newkpt: treating     45 bands with npw=    6667 for ikpt=  35 by node    0
P newkpt: treating     45 bands with npw=    6658 for ikpt=  36 by node    0
P newkpt: treating     45 bands with npw=    6670 for ikpt=  37 by node    0
P newkpt: treating     45 bands with npw=    6676 for ikpt=  38 by node    0
P newkpt: treating     45 bands with npw=    6658 for ikpt=  39 by node    0
P newkpt: treating     45 bands with npw=    6640 for ikpt=  40 by node    0
P newkpt: treating     45 bands with npw=    6637 for ikpt=  41 by node    0
P newkpt: treating     45 bands with npw=    6632 for ikpt=  42 by node    0
P newkpt: treating     45 bands with npw=    6650 for ikpt=  43 by node    0
P newkpt: treating     45 bands with npw=    6650 for ikpt=  44 by node    0
P newkpt: treating     45 bands with npw=    6650 for ikpt=  45 by node    0
P newkpt: treating     45 bands with npw=    6668 for ikpt=  46 by node    0
P newkpt: treating     45 bands with npw=    6647 for ikpt=  47 by node    0
P newkpt: treating     45 bands with npw=    6671 for ikpt=  48 by node    0
P newkpt: treating     45 bands with npw=    6695 for ikpt=  49 by node    0
P newkpt: treating     45 bands with npw=    6713 for ikpt=  50 by node    0
 newkpt: prtvol=0 or 1, do not print more k-points.


================================================================================
 prteigrs : about to open file fenio_DS2_EIG
 Non-SCF case, kpt    1 (  0.00000  0.00000  0.00000), residuals and eigenvalues=
  2.74E-13  2.07E-13  2.05E-13  6.52E-13  7.79E-13  3.18E-13  6.44E-13  4.10E-13
  1.23E-13  6.42E-13  9.84E-13  8.77E-13  1.72E-13  1.81E-13  9.46E-14  2.54E-13
  2.91E-13  2.15E-13  8.76E-13  4.15E-13  1.23E-13  6.54E-13  8.07E-14  1.52E-13
  7.09E-13  2.99E-13  9.67E-13  4.11E-13  5.97E-13  1.32E-13  2.78E-13  1.41E-13
  2.31E-13  5.61E-13  3.77E-13  3.42E-13  3.41E-13  4.66E-13  2.81E-13  4.65E-13
  4.80E-13  4.48E-13  4.99E-13  9.26E-09  1.91E-11
 -5.5312E-01 -3.8670E-01 -3.8670E-01 -3.8609E-01 -3.6508E-01 -3.6508E-01
 -3.6508E-01 -2.9861E-01 -2.9861E-01 -2.9861E-01 -2.6008E-01 -2.6008E-01
 -2.4102E-01 -2.3325E-01 -2.3325E-01 -2.3325E-01 -2.1490E-01 -2.1490E-01
 -2.0168E-01 -2.0168E-01 -2.0168E-01 -1.3110E-01 -1.3110E-01 -1.3110E-01
  1.4114E-01  1.4114E-01  1.4931E-01  3.1681E-01  3.1681E-01  3.1681E-01
  3.3611E-01  3.3611E-01  3.3611E-01  5.9449E-01  5.9449E-01  6.0482E-01
  6.0482E-01  6.0482E-01  6.5521E-01  6.6166E-01  8.1235E-01  8.1235E-01
  8.1235E-01  9.5063E-01  1.0686E+00
  prteigrs : nnsclo,ikpt=   70    1 max resid (incl. the buffer)=  9.26122E-09
 Non-SCF case, kpt    2 (  0.00000  0.05000  0.00000), residuals and eigenvalues=
  4.24E-13  1.72E-13  8.59E-13  4.40E-13  1.45E-13  2.82E-13  2.76E-13  4.96E-13
  2.42E-13  8.15E-13  7.30E-13  8.02E-13  7.87E-13  2.05E-13  3.07E-13  2.64E-13
  5.67E-13  8.04E-13  2.49E-13  7.96E-13  7.58E-13  5.63E-13  5.20E-13  6.10E-13
  8.65E-13  2.11E-13  2.38E-13  9.39E-13  4.84E-13  1.16E-13  9.02E-13  4.56E-13
  1.82E-13  3.63E-13  5.52E-13  2.61E-13  6.11E-13  8.57E-13  6.92E-13  4.09E-13
  6.75E-13  3.58E-13  3.65E-13  5.10E-09  3.24E-08
 -5.5185E-01 -3.8651E-01 -3.8603E-01 -3.8559E-01 -3.6471E-01 -3.6468E-01
 -3.6468E-01 -2.9904E-01 -2.9830E-01 -2.9830E-01 -2.6051E-01 -2.5996E-01
 -2.4142E-01 -2.3511E-01 -2.3511E-01 -2.3325E-01 -2.1549E-01 -2.1525E-01
 -2.0424E-01 -2.0424E-01 -2.0170E-01 -1.3704E-01 -1.2624E-01 -1.2624E-01
  1.4137E-01  1.4472E-01  1.5427E-01  3.1230E-01  3.1453E-01  3.1453E-01
  3.3164E-01  3.3478E-01  3.3478E-01  5.9725E-01  6.0229E-01  6.0487E-01
  6.1177E-01  6.1177E-01  6.6004E-01  6.6105E-01  8.0213E-01  8.0587E-01
  8.0587E-01  9.6399E-01  1.0718E+00
  prteigrs : nnsclo,ikpt=   70    2 max resid (incl. the buffer)=  3.23997E-08
 Non-SCF case, kpt    3 (  0.00000  0.10000  0.00000), residuals and eigenvalues=
  1.55E-13  3.57E-13  4.44E-13  3.01E-13  3.19E-13  8.28E-13  4.95E-13  1.97E-13
  4.13E-13  3.05E-13  1.51E-13  2.11E-13  4.43E-13  9.48E-13  9.67E-13  3.93E-13
  4.51E-13  1.74E-13  9.11E-13  1.82E-13  3.01E-13  3.63E-13  3.09E-13  2.55E-13
  3.46E-13  2.02E-13  6.81E-13  3.81E-13  2.48E-13  4.76E-13  9.95E-14  6.82E-13
  4.54E-13  6.89E-13  5.94E-13  8.44E-13  7.11E-13  6.01E-13  5.81E-13  2.71E-13
  6.49E-13  4.65E-13  7.90E-13  1.46E-07  5.57E-07
 -5.4806E-01 -3.8627E-01 -3.8407E-01 -3.8387E-01 -3.6361E-01 -3.6348E-01
 -3.6348E-01 -3.0033E-01 -2.9738E-01 -2.9738E-01 -2.6178E-01 -2.5960E-01
 -2.4263E-01 -2.4060E-01 -2.4060E-01 -2.3325E-01 -2.1732E-01 -2.1626E-01
 -2.0995E-01 -2.0995E-01 -2.0175E-01 -1.5281E-01 -1.1367E-01 -1.1367E-01
  1.4205E-01  1.4659E-01  1.7607E-01  3.0020E-01  3.0272E-01  3.0272E-01
  3.1957E-01  3.3716E-01  3.3716E-01  6.0306E-01  6.0500E-01  6.2425E-01
  6.3115E-01  6.3115E-01  6.5929E-01  6.7556E-01  7.7920E-01  7.8780E-01
  7.8780E-01  9.9583E-01  1.0805E+00
  prteigrs : nnsclo,ikpt=   70    3 max resid (incl. the buffer)=  5.57194E-07
 Non-SCF case, kpt    4 (  0.00000  0.15000  0.00000), residuals and eigenvalues=
  1.75E-13  6.86E-14  2.07E-13  3.26E-13  1.99E-13  1.77E-13  9.66E-13  3.53E-13
  7.22E-13  2.93E-13  7.32E-13  4.42E-13  1.83E-13  4.50E-13  8.46E-13  7.78E-13
  4.01E-13  1.76E-13  9.81E-13  6.37E-13  5.31E-13  2.26E-13  4.13E-13  7.08E-13
  1.05E-13  9.47E-14  1.08E-13  4.46E-13  4.79E-13  4.34E-13  8.65E-13  2.84E-13
  6.31E-13  5.53E-13  2.56E-13  9.91E-13  2.82E-13  3.75E-13  5.77E-13  3.55E-13
  7.16E-13  9.73E-13  4.42E-13  1.45E-05  5.01E-05
 -5.4180E-01 -3.8621E-01 -3.8102E-01 -3.8089E-01 -3.6180E-01 -3.6147E-01
 -3.6147E-01 -3.0244E-01 -2.9589E-01 -2.9589E-01 -2.6385E-01 -2.5903E-01
 -2.4915E-01 -2.4915E-01 -2.4468E-01 -2.3325E-01 -2.2057E-01 -2.1782E-01
 -2.1621E-01 -2.1621E-01 -2.0183E-01 -1.7401E-01 -9.6410E-02 -9.6410E-02
  1.4325E-01  1.4760E-01  2.0992E-01  2.8141E-01  2.8141E-01  2.8350E-01
  3.0285E-01  3.4621E-01  3.4621E-01  6.0522E-01  6.0831E-01  6.5663E-01
  6.5733E-01  6.5979E-01  6.5979E-01  7.0159E-01  7.5377E-01  7.6130E-01
  7.6130E-01  1.0327E+00  1.0948E+00
  prteigrs : nnsclo,ikpt=   70    4 max resid (incl. the buffer)=  5.00881E-05
 Non-SCF case, kpt    5 (  0.00000  0.20000  0.00000), residuals and eigenvalues=
  4.34E-14  6.91E-13  9.36E-14  1.72E-13  1.42E-13  8.54E-13  5.61E-13  3.81E-13
  2.66E-13  4.67E-13  8.84E-13  5.16E-13  5.46E-13  8.35E-13  3.23E-13  2.28E-13
  5.48E-13  4.96E-13  3.79E-13  3.60E-13  7.22E-13  1.95E-13  2.27E-13  1.27E-13
  4.57E-13  8.73E-13  2.21E-13  1.61E-13  8.34E-14  4.04E-13  4.10E-13  1.92E-13
  1.22E-13  8.61E-13  4.20E-13  4.12E-13  5.21E-13  9.24E-13  9.70E-13  8.24E-13
  8.77E-13  9.04E-13  5.47E-13  1.72E-06  4.91E-05
 -5.3316E-01 -3.8674E-01 -3.7726E-01 -3.7666E-01 -3.5931E-01 -3.5865E-01
 -3.5865E-01 -3.0530E-01 -2.9395E-01 -2.9395E-01 -2.6663E-01 -2.5948E-01
 -2.5948E-01 -2.5831E-01 -2.4753E-01 -2.3324E-01 -2.2602E-01 -2.2226E-01
 -2.2226E-01 -2.1976E-01 -2.0193E-01 -1.9595E-01 -7.6263E-02 -7.6263E-02
  1.4504E-01  1.4878E-01  2.5140E-01  2.5507E-01  2.5507E-01  2.6492E-01
  2.8431E-01  3.6009E-01  3.6009E-01  6.0551E-01  6.1225E-01  6.5337E-01
  6.9420E-01  6.9420E-01  6.9867E-01  7.1789E-01  7.3015E-01  7.3015E-01
  7.4797E-01  1.0381E+00  1.1100E+00
  prteigrs : nnsclo,ikpt=   70    5 max resid (incl. the buffer)=  4.91324E-05
 Non-SCF case, kpt    6 (  0.00000  0.25000  0.00000), residuals and eigenvalues=
  8.96E-13  8.29E-13  1.79E-13  4.61E-13  2.46E-13  2.38E-13  4.24E-13  2.52E-13
  3.10E-13  3.71E-13  8.06E-13  2.08E-13  6.43E-13  3.51E-13  6.00E-13  7.36E-14
  5.07E-13  3.54E-13  9.46E-13  3.07E-13  4.59E-13  8.77E-13  5.06E-13  3.48E-13
  1.44E-13  3.55E-13  3.72E-13  7.53E-13  1.81E-13  4.20E-13  1.29E-13  3.51E-13
  4.13E-13  4.90E-13  3.44E-13  5.99E-13  4.20E-13  5.02E-13  6.07E-13  6.87E-13
  2.95E-13  8.87E-13  2.90E-13  4.17E-11  1.23E-04
 -5.2225E-01 -3.8858E-01 -3.7283E-01 -3.7162E-01 -3.5620E-01 -3.5501E-01
 -3.5501E-01 -3.0882E-01 -2.9187E-01 -2.9187E-01 -2.7012E-01 -2.7012E-01
 -2.7001E-01 -2.5762E-01 -2.5101E-01 -2.3623E-01 -2.3323E-01 -2.2820E-01
 -2.2820E-01 -2.2185E-01 -2.1307E-01 -2.0203E-01 -5.4088E-02 -5.4088E-02
  1.4751E-01  1.5031E-01  2.2622E-01  2.2622E-01  2.4633E-01  2.6569E-01
  2.9837E-01  3.7794E-01  3.7794E-01  6.0588E-01  6.1566E-01  6.4987E-01
  6.9214E-01  6.9214E-01  6.9744E-01  7.3709E-01  7.3709E-01  7.4624E-01
  7.8719E-01  9.8071E-01  1.1283E+00
  prteigrs : nnsclo,ikpt=   70    6 max resid (incl. the buffer)=  1.23007E-04
 Non-SCF case, kpt    7 (  0.00000  0.30000  0.00000), residuals and eigenvalues=
  5.68E-14  1.10E-13  8.53E-13  1.15E-13  1.43E-13  7.42E-13  7.77E-13  6.79E-13
  4.16E-13  3.21E-13  5.39E-13  3.64E-13  2.31E-13  2.71E-13  2.44E-13  7.95E-13
  2.64E-13  1.93E-13  5.04E-13  2.76E-13  2.65E-13  5.56E-13  4.24E-13  6.43E-14
  7.75E-14  1.57E-13  7.19E-13  8.14E-13  4.26E-13  2.68E-13  6.35E-14  1.46E-13
  3.62E-13  4.28E-13  7.48E-13  8.58E-13  5.62E-13  8.20E-13  9.32E-13  1.96E-13
  1.88E-13  8.13E-13  2.36E-13  2.92E-12  1.64E-05
 -5.0925E-01 -3.9268E-01 -3.6808E-01 -3.6612E-01 -3.5255E-01 -3.5055E-01
 -3.5055E-01 -3.1289E-01 -2.9126E-01 -2.9126E-01 -2.7880E-01 -2.7880E-01
 -2.7388E-01 -2.5790E-01 -2.5405E-01 -2.5152E-01 -2.3407E-01 -2.3407E-01
 -2.3323E-01 -2.2390E-01 -2.2251E-01 -2.0213E-01 -3.0320E-02 -3.0320E-02
  1.5081E-01  1.5222E-01  1.9623E-01  1.9623E-01  2.2880E-01  2.4875E-01
  3.4887E-01  3.9929E-01  3.9929E-01  6.0630E-01  6.1920E-01  6.4647E-01
  6.5621E-01  6.5621E-01  6.7540E-01  7.8005E-01  7.8005E-01  7.9863E-01
  8.3281E-01  9.1361E-01  1.1490E+00
  prteigrs : nnsclo,ikpt=   70    7 max resid (incl. the buffer)=  1.64119E-05
 Non-SCF case, kpt    8 (  0.00000  0.35000  0.00000), residuals and eigenvalues=
  2.89E-13  2.17E-13  6.70E-14  9.43E-14  1.55E-13  1.43E-13  5.35E-13  7.02E-13
  4.71E-13  5.33E-13  3.45E-13  1.63E-13  6.67E-13  1.87E-13  5.13E-13  8.71E-13
  4.36E-13  3.47E-13  4.09E-13  9.01E-13  2.72E-13  3.13E-13  1.04E-13  1.22E-13
  5.84E-13  2.83E-13  1.65E-13  8.20E-13  1.68E-14  8.19E-14  6.08E-13  6.10E-13
  2.81E-13  3.07E-13  6.39E-13  4.43E-13  7.57E-13  1.77E-13  4.69E-13  6.09E-13
  7.48E-13  5.48E-13  7.17E-13  3.14E-13  1.14E-04
 -4.9442E-01 -4.0008E-01 -3.6347E-01 -3.6063E-01 -3.4847E-01 -3.4528E-01
 -3.4528E-01 -3.1735E-01 -2.9680E-01 -2.9680E-01 -2.8060E-01 -2.8060E-01
 -2.7816E-01 -2.6564E-01 -2.6114E-01 -2.5437E-01 -2.3976E-01 -2.3976E-01
 -2.3322E-01 -2.2822E-01 -2.2573E-01 -2.0222E-01 -5.2069E-03 -5.2069E-03
  1.5446E-01  1.5508E-01  1.6589E-01  1.6589E-01  2.1293E-01  2.3413E-01
  4.0197E-01  4.2381E-01  4.2381E-01  6.0672E-01  6.1934E-01  6.1934E-01
  6.2248E-01  6.4347E-01  6.5574E-01  8.2654E-01  8.2654E-01  8.3439E-01
  8.5467E-01  8.9503E-01  1.1556E+00
  prteigrs : nnsclo,ikpt=   70    8 max resid (incl. the buffer)=  1.14409E-04
 Non-SCF case, kpt    9 (  0.00000  0.40000  0.00000), residuals and eigenvalues=
  3.05E-13  8.12E-13  5.21E-13  4.33E-13  1.83E-13  3.62E-13  1.31E-13  5.69E-13
  1.81E-13  9.51E-14  5.86E-13  2.13E-13  8.75E-13  2.04E-13  4.21E-13  4.00E-13
  3.09E-13  5.02E-13  1.61E-13  8.22E-13  5.13E-13  2.27E-13  1.42E-13  1.03E-13
  3.74E-13  5.93E-14  2.10E-13  8.91E-13  7.04E-13  2.40E-13  6.32E-13  1.87E-13
  3.58E-13  1.97E-13  9.74E-13  6.69E-13  6.01E-13  5.90E-13  3.44E-13  5.01E-13
  7.39E-13  4.61E-13  7.70E-13  2.84E-12  7.46E-10
 -4.7813E-01 -4.1129E-01 -3.5953E-01 -3.5581E-01 -3.4410E-01 -3.3923E-01
 -3.3923E-01 -3.2202E-01 -3.0576E-01 -3.0576E-01 -2.8279E-01 -2.7827E-01
 -2.7827E-01 -2.7480E-01 -2.6504E-01 -2.5377E-01 -2.4489E-01 -2.4489E-01
 -2.3322E-01 -2.3225E-01 -2.2719E-01 -2.0229E-01  2.1087E-02  2.1087E-02
  1.3569E-01  1.3569E-01  1.5682E-01  1.6045E-01  1.9902E-01  2.2262E-01
  4.5116E-01  4.5116E-01  4.5624E-01  5.8285E-01  5.8285E-01  6.0710E-01
  6.1814E-01  6.4111E-01  6.4537E-01  7.7581E-01  8.7564E-01  8.7564E-01
  9.1281E-01  9.4204E-01  1.0952E+00
  prteigrs : nnsclo,ikpt=   70    9 max resid (incl. the buffer)=  7.45655E-10
 Non-SCF case, kpt   10 (  0.00000  0.45000  0.00000), residuals and eigenvalues=
  4.47E-13  7.53E-13  6.31E-13  1.89E-13  3.53E-13  2.84E-13  1.39E-13  3.02E-13
  3.28E-13  2.44E-13  8.68E-13  3.09E-13  5.08E-13  7.72E-13  8.98E-13  7.83E-13
  8.80E-13  7.93E-13  2.66E-13  3.58E-13  2.14E-13  2.05E-13  4.10E-13  6.74E-13
  8.25E-13  6.99E-13  3.28E-13  3.87E-13  2.33E-13  4.95E-14  7.09E-13  7.83E-13
  7.99E-13  2.33E-13  2.73E-13  7.84E-13  8.92E-13  6.01E-13  2.91E-13  7.28E-13
  7.05E-13  2.16E-13  6.55E-13  5.66E-11  3.40E-13
 -4.6098E-01 -4.2573E-01 -3.5685E-01 -3.5242E-01 -3.3985E-01 -3.3260E-01
 -3.3260E-01 -3.2646E-01 -3.1455E-01 -3.1455E-01 -2.8660E-01 -2.7917E-01
 -2.7572E-01 -2.7572E-01 -2.6796E-01 -2.5326E-01 -2.4878E-01 -2.4878E-01
 -2.3481E-01 -2.3321E-01 -2.2814E-01 -2.0233E-01  4.8423E-02  4.8423E-02
  1.0594E-01  1.0594E-01  1.5876E-01  1.6693E-01  1.8733E-01  2.1507E-01
  4.8099E-01  4.8099E-01  5.0917E-01  5.4743E-01  5.4743E-01  5.9575E-01
  6.0737E-01  6.3960E-01  6.5217E-01  7.2507E-01  9.2695E-01  9.2695E-01
  9.6872E-01  9.8552E-01  1.0375E+00
  prteigrs : nnsclo,ikpt=   70   10 max resid (incl. the buffer)=  5.65829E-11
 Non-SCF case, kpt   11 (  0.00000  0.50000  0.00000), residuals and eigenvalues=
  9.94E-14  6.41E-14  8.36E-13  9.02E-14  2.05E-13  2.95E-13  9.54E-13  9.47E-14
  3.66E-13  5.35E-13  5.90E-13  2.25E-13  6.51E-13  2.95E-13  2.82E-13  4.47E-13
  6.34E-13  3.30E-13  1.92E-13  6.64E-13  2.96E-13  1.19E-13  5.65E-13  4.48E-13
  2.00E-13  1.17E-13  2.63E-13  2.26E-13  2.81E-13  1.06E-13  4.35E-13  1.77E-13
  6.37E-13  1.04E-13  5.06E-13  2.02E-13  3.25E-13  7.16E-13  8.58E-13  8.02E-13
  4.84E-13  9.22E-13  6.12E-13  2.58E-08  4.20E-08
 -4.4682E-01 -4.3908E-01 -3.5589E-01 -3.5119E-01 -3.3747E-01 -3.2891E-01
 -3.2769E-01 -3.2769E-01 -3.2021E-01 -3.2021E-01 -2.8798E-01 -2.8046E-01
 -2.7460E-01 -2.7460E-01 -2.6904E-01 -2.5306E-01 -2.5032E-01 -2.5032E-01
 -2.3569E-01 -2.3321E-01 -2.2847E-01 -2.0234E-01  7.5074E-02  7.5074E-02
  7.8479E-02  7.8479E-02  1.5954E-01  1.7217E-01  1.8035E-01  2.1240E-01
  5.1007E-01  5.1007E-01  5.1648E-01  5.1648E-01  5.4925E-01  5.6676E-01
  6.0747E-01  6.3908E-01  6.6158E-01  7.0001E-01  9.7397E-01  9.7397E-01
  9.8839E-01  9.8839E-01  1.0001E+00
  prteigrs : nnsclo,ikpt=   70   11 max resid (incl. the buffer)=  4.20205E-08
 Non-SCF case, kpt   12 (  0.05000  0.50000  0.00000), residuals and eigenvalues=
  2.08E-13  7.44E-13  8.96E-13  2.35E-13  3.27E-13  2.17E-13  2.13E-13  2.51E-13
  6.09E-13  9.10E-13  2.46E-13  9.35E-13  4.99E-13  5.66E-13  2.32E-13  7.77E-13
  4.25E-13  1.55E-13  7.91E-13  8.11E-13  8.18E-13  1.78E-13  8.73E-14  3.37E-13
  4.52E-14  6.67E-14  2.30E-13  2.90E-14  2.47E-13  6.60E-13  3.49E-13  3.15E-13
  3.12E-13  2.75E-13  4.45E-13  7.00E-13  3.52E-13  1.84E-13  5.30E-13  3.84E-13
  3.96E-13  7.13E-13  5.19E-13  3.44E-12  6.22E-06
 -4.4584E-01 -4.3811E-01 -3.5539E-01 -3.5066E-01 -3.3729E-01 -3.2899E-01
 -3.2813E-01 -3.2740E-01 -3.2080E-01 -3.2017E-01 -2.8869E-01 -2.8327E-01
 -2.7455E-01 -2.7202E-01 -2.6903E-01 -2.5593E-01 -2.5062E-01 -2.4666E-01
 -2.3542E-01 -2.3351E-01 -2.2846E-01 -2.0325E-01  6.1450E-02  6.2040E-02
  7.7135E-02  8.0174E-02  1.6619E-01  1.8526E-01  1.8872E-01  2.2064E-01
  4.9451E-01  4.9630E-01  5.0398E-01  5.0546E-01  5.5696E-01  5.7284E-01
  6.2254E-01  6.5117E-01  6.7291E-01  7.0956E-01  9.4281E-01  9.5328E-01
  9.7475E-01  9.8905E-01  1.0322E+00
  prteigrs : nnsclo,ikpt=   70   12 max resid (incl. the buffer)=  6.21617E-06
 Non-SCF case, kpt   13 (  0.10000  0.50000  0.00000), residuals and eigenvalues=
  1.75E-13  4.70E-14  1.30E-13  1.04E-13  3.72E-13  1.43E-13  2.73E-13  1.61E-13
  9.64E-14  1.63E-13  2.14E-13  4.73E-13  4.84E-13  3.91E-13  4.91E-13  3.95E-13
  9.64E-13  2.45E-13  5.96E-13  3.34E-13  7.35E-13  7.18E-13  2.41E-13  1.08E-13
  7.14E-13  1.01E-13  8.88E-13  1.95E-13  7.74E-13  4.82E-13  5.91E-13  8.86E-13
  1.32E-13  2.70E-13  9.10E-13  8.82E-13  2.18E-13  3.59E-13  2.71E-13  5.09E-13
  2.71E-13  9.36E-13  7.87E-13  3.93E-12  7.25E-07
 -4.4290E-01 -4.3525E-01 -3.5392E-01 -3.4911E-01 -3.3677E-01 -3.2941E-01
 -3.2907E-01 -3.2670E-01 -3.2251E-01 -3.2005E-01 -2.9064E-01 -2.8771E-01
 -2.7439E-01 -2.6904E-01 -2.6835E-01 -2.5934E-01 -2.5153E-01 -2.4109E-01
 -2.3484E-01 -2.3432E-01 -2.2811E-01 -2.0585E-01  3.0781E-02  3.2502E-02
  8.3217E-02  8.5210E-02  1.7009E-01  1.9745E-01  2.2256E-01  2.4987E-01
  4.6522E-01  4.6748E-01  4.7808E-01  4.8015E-01  5.6682E-01  5.8214E-01
  6.5526E-01  6.7968E-01  7.0266E-01  7.3538E-01  9.0318E-01  9.1208E-01
  9.7709E-01  9.9101E-01  1.0739E+00
  prteigrs : nnsclo,ikpt=   70   13 max resid (incl. the buffer)=  7.25116E-07
 Non-SCF case, kpt   14 (  0.15000  0.50000  0.00000), residuals and eigenvalues=
  2.44E-13  3.84E-13  9.51E-14  2.31E-13  8.94E-13  9.47E-13  8.31E-13  1.99E-13
  1.28E-13  6.01E-13  3.30E-13  5.01E-13  5.64E-13  7.64E-13  4.84E-13  7.78E-13
  2.73E-13  5.68E-13  6.94E-13  3.29E-13  5.01E-13  4.08E-13  8.69E-13  9.53E-13
  1.30E-13  4.29E-13  9.16E-13  3.72E-13  1.36E-13  5.06E-13  5.10E-13  4.95E-13
  1.44E-13  3.36E-13  3.42E-13  4.36E-13  5.86E-13  7.95E-13  7.24E-13  6.89E-13
  4.52E-13  8.24E-13  6.89E-13  1.06E-12  7.40E-06
 -4.3810E-01 -4.3058E-01 -3.5159E-01 -3.4666E-01 -3.3593E-01 -3.3137E-01
 -3.2904E-01 -3.2574E-01 -3.2513E-01 -3.1987E-01 -2.9340E-01 -2.9204E-01
 -2.7410E-01 -2.6922E-01 -2.6564E-01 -2.6265E-01 -2.5304E-01 -2.3548E-01
 -2.3469E-01 -2.3466E-01 -2.2651E-01 -2.0989E-01 -2.2055E-03 -2.3415E-05
  9.3048E-02  9.3444E-02  1.7456E-01  2.0279E-01  2.6772E-01  2.9215E-01
  4.3341E-01  4.3481E-01  4.4879E-01  4.4960E-01  5.7483E-01  5.8999E-01
  6.9438E-01  7.1553E-01  7.4314E-01  7.7151E-01  8.6514E-01  8.7250E-01
  9.8090E-01  9.9419E-01  1.0953E+00
  prteigrs : nnsclo,ikpt=   70   14 max resid (incl. the buffer)=  7.39771E-06
 Non-SCF case, kpt   15 (  0.20000  0.50000  0.00000), residuals and eigenvalues=
  2.46E-13  4.27E-13  4.32E-13  1.13E-13  6.72E-13  6.45E-13  6.47E-13  4.40E-13
  1.07E-13  5.92E-13  3.74E-13  6.94E-13  8.40E-13  9.90E-13  4.80E-13  4.36E-13
  5.73E-13  3.96E-13  2.08E-13  4.74E-13  8.68E-13  3.99E-13  2.25E-13  2.77E-13
  5.90E-13  3.63E-13  1.01E-13  6.32E-14  1.32E-13  7.71E-13  5.49E-13  1.00E-13
  8.19E-13  8.11E-13  4.44E-13  3.07E-13  6.98E-13  4.33E-13  3.35E-13  7.81E-13
  6.37E-13  9.45E-13  8.82E-13  1.11E-11  3.12E-05
 -4.3156E-01 -4.2424E-01 -3.4862E-01 -3.4372E-01 -3.3480E-01 -3.3365E-01
 -3.2888E-01 -3.2836E-01 -3.2463E-01 -3.1967E-01 -2.9651E-01 -2.9591E-01
 -2.7361E-01 -2.6978E-01 -2.6608E-01 -2.6452E-01 -2.5511E-01 -2.3677E-01
 -2.3531E-01 -2.2766E-01 -2.2302E-01 -2.1495E-01 -3.3750E-02 -3.2077E-02
  1.0467E-01  1.0625E-01  1.8058E-01  2.0816E-01  3.1670E-01  3.4009E-01
  4.0165E-01  4.0209E-01  4.1752E-01  4.1957E-01  5.8270E-01  5.9719E-01
  7.3647E-01  7.5492E-01  7.8828E-01  8.1125E-01  8.3010E-01  8.3513E-01
  9.8606E-01  9.9845E-01  1.0855E+00
  prteigrs : nnsclo,ikpt=   70   15 max resid (incl. the buffer)=  3.12373E-05
 Non-SCF case, kpt   16 (  0.25000  0.50000  0.00000), residuals and eigenvalues=
  3.44E-13  2.04E-13  8.11E-13  3.61E-13  2.44E-13  5.70E-13  1.40E-13  1.06E-13
  2.28E-13  5.06E-13  7.55E-13  7.31E-13  3.01E-13  8.76E-13  6.41E-13  5.76E-13
  5.27E-13  3.00E-13  6.12E-13  8.80E-13  6.96E-13  4.52E-13  5.65E-13  4.18E-13
  8.78E-13  9.57E-13  1.49E-13  5.19E-13  6.04E-13  6.57E-13  3.51E-13  2.02E-13
  1.37E-13  4.16E-13  3.28E-13  4.79E-13  2.94E-13  6.41E-13  8.43E-13  2.58E-13
  5.44E-13  3.96E-13  4.67E-13  2.48E-11  2.44E-08
 -4.2346E-01 -4.1646E-01 -3.4568E-01 -3.4198E-01 -3.3463E-01 -3.3345E-01
 -3.3156E-01 -3.2863E-01 -3.2343E-01 -3.1949E-01 -2.9963E-01 -2.9914E-01
 -2.7290E-01 -2.7096E-01 -2.6973E-01 -2.6525E-01 -2.5760E-01 -2.3800E-01
 -2.3651E-01 -2.2060E-01 -2.2010E-01 -2.1787E-01 -6.2803E-02 -6.2135E-02
  1.1863E-01  1.2243E-01  1.8830E-01  2.1448E-01  3.6680E-01  3.6905E-01
  3.7401E-01  3.8532E-01  3.8838E-01  3.9486E-01  5.9153E-01  6.0480E-01
  7.8032E-01  7.9557E-01  7.9629E-01  8.0012E-01  8.3128E-01  8.4949E-01
  9.9228E-01  1.0035E+00  1.0327E+00
  prteigrs : nnsclo,ikpt=   70   16 max resid (incl. the buffer)=  2.43722E-08
 Non-SCF case, kpt   17 (  0.30000  0.50000  0.00000), residuals and eigenvalues=
  6.67E-13  5.45E-13  7.88E-13  1.10E-13  2.80E-13  2.55E-13  3.84E-13  1.68E-13
  2.09E-13  9.49E-13  5.02E-13  2.97E-13  3.84E-13  7.41E-13  3.02E-13  9.53E-13
  2.88E-13  4.00E-13  4.13E-13  3.83E-13  3.68E-13  5.80E-13  1.13E-13  3.99E-13
  4.45E-13  4.33E-13  3.06E-13  4.13E-13  7.11E-13  3.91E-13  4.91E-13  4.21E-13
  1.53E-13  9.92E-14  8.42E-13  7.09E-13  3.30E-13  9.15E-13  7.21E-13  7.43E-13
  7.09E-13  4.47E-13  8.43E-13  6.52E-11  3.59E-11
 -4.1409E-01 -4.0755E-01 -3.4486E-01 -3.4416E-01 -3.3282E-01 -3.3196E-01
 -3.3185E-01 -3.2833E-01 -3.2224E-01 -3.1937E-01 -3.0256E-01 -3.0159E-01
 -2.7349E-01 -2.7284E-01 -2.7192E-01 -2.6770E-01 -2.6026E-01 -2.3906E-01
 -2.3797E-01 -2.2640E-01 -2.1210E-01 -2.1144E-01 -8.9410E-02 -8.8832E-02
  1.3508E-01  1.4118E-01  1.9778E-01  2.2197E-01  3.3746E-01  3.4415E-01
  3.5359E-01  3.6579E-01  4.2305E-01  4.4573E-01  6.0191E-01  6.1349E-01
  7.6528E-01  7.6774E-01  8.2523E-01  8.3878E-01  8.5383E-01  8.6513E-01
  9.9904E-01  1.0036E+00  1.0089E+00
  prteigrs : nnsclo,ikpt=   70   17 max resid (incl. the buffer)=  6.51948E-11
 Non-SCF case, kpt   18 (  0.35000  0.50000  0.00000), residuals and eigenvalues=
  7.99E-13  4.34E-14  9.24E-14  7.91E-13  3.70E-13  1.23E-13  3.65E-13  1.63E-13
  1.30E-13  1.71E-13  1.85E-13  3.84E-13  6.85E-13  6.28E-13  5.01E-13  5.53E-13
  2.60E-13  2.61E-13  3.99E-13  2.78E-13  4.05E-13  5.74E-13  2.73E-13  1.51E-13
  3.80E-13  1.63E-13  3.16E-14  7.43E-14  1.27E-13  1.86E-13  6.92E-13  3.07E-13
  4.90E-13  1.25E-13  3.11E-13  3.97E-13  1.36E-13  7.79E-13  2.34E-13  5.30E-13
  4.58E-13  3.57E-13  8.47E-13  2.00E-12  1.01E-09
 -4.0378E-01 -3.9794E-01 -3.4848E-01 -3.4836E-01 -3.3046E-01 -3.3027E-01
 -3.2803E-01 -3.2750E-01 -3.2117E-01 -3.1934E-01 -3.0528E-01 -3.0314E-01
 -2.7710E-01 -2.7532E-01 -2.7146E-01 -2.7068E-01 -2.6280E-01 -2.3991E-01
 -2.3953E-01 -2.3189E-01 -2.0401E-01 -2.0369E-01 -1.1338E-01 -1.1148E-01
  1.5373E-01  1.6218E-01  2.0907E-01  2.3056E-01  3.0713E-01  3.1852E-01
  3.2263E-01  3.4285E-01  4.7932E-01  5.0165E-01  6.1419E-01  6.2362E-01
  7.3780E-01  7.3797E-01  8.3048E-01  8.4185E-01  8.7045E-01  8.8149E-01
  1.0053E+00  1.0134E+00  1.0235E+00
  prteigrs : nnsclo,ikpt=   70   18 max resid (incl. the buffer)=  1.01099E-09
 Non-SCF case, kpt   19 (  0.40000  0.50000  0.00000), residuals and eigenvalues=
  5.59E-14  2.19E-13  8.89E-14  3.53E-13  3.72E-13  1.70E-13  1.35E-13  1.43E-13
  1.53E-13  1.53E-13  2.49E-13  3.42E-13  4.04E-13  8.88E-13  6.54E-13  7.70E-13
  3.42E-13  2.89E-13  8.20E-13  2.15E-13  5.05E-13  3.01E-13  1.25E-13  2.68E-13
  1.03E-13  2.01E-13  1.78E-13  5.46E-14  9.11E-13  3.98E-13  3.14E-13  3.51E-13
  2.29E-13  3.45E-13  4.33E-13  2.06E-13  2.02E-13  4.34E-13  7.85E-13  3.07E-13
  4.47E-13  5.23E-13  4.97E-13  3.75E-13  9.65E-07
 -3.9298E-01 -3.8817E-01 -3.5460E-01 -3.5388E-01 -3.2912E-01 -3.2778E-01
 -3.2595E-01 -3.2331E-01 -3.2032E-01 -3.1940E-01 -3.0795E-01 -3.0368E-01
 -2.8009E-01 -2.7802E-01 -2.7584E-01 -2.6932E-01 -2.6490E-01 -2.4099E-01
 -2.4053E-01 -2.3657E-01 -1.9580E-01 -1.9503E-01 -1.3358E-01 -1.3038E-01
  1.7427E-01  1.8515E-01  2.2223E-01  2.3982E-01  2.7833E-01  2.9265E-01
  2.9506E-01  3.2320E-01  5.3744E-01  5.5924E-01  6.2859E-01  6.3535E-01
  7.1087E-01  7.1344E-01  7.7918E-01  7.9384E-01  9.1475E-01  9.2304E-01
  1.0089E+00  1.0147E+00  1.0748E+00
  prteigrs : nnsclo,ikpt=   70   19 max resid (incl. the buffer)=  9.64865E-07
 Non-SCF case, kpt   20 (  0.45000  0.50000  0.00000), residuals and eigenvalues=
  4.36E-14  1.72E-13  1.37E-13  1.17E-13  1.42E-13  8.89E-13  8.87E-13  3.35E-13
[...]
                       7.25000000E-01  7.25000000E-01  7.25000000E-01
                       7.00000000E-01  7.00000000E-01  7.00000000E-01
                       6.75000000E-01  6.75000000E-01  6.75000000E-01
                       6.50000000E-01  6.50000000E-01  6.50000000E-01
                       6.25000000E-01  6.25000000E-01  6.25000000E-01
                       6.00000000E-01  6.00000000E-01  6.00000000E-01
                       5.75000000E-01  5.75000000E-01  5.75000000E-01
                       5.50000000E-01  5.50000000E-01  5.50000000E-01
                       5.25000000E-01  5.25000000E-01  5.25000000E-01
                       outvar_i_n : Printing only first  50 k-points.
           kptopt1          1
           kptopt2         -5
         kptrlatt        4   -4   -4     -4    4   -4      4    4    4
          kptrlen1     4.63503724E+01
          kptrlen2     3.00000000E+01
P           mkmem1         16
P           mkmem2         61
            natom           4
            nband1         45
            nband2         45
           nbdbuf1          0
           nbdbuf2          2
           ndtset           2
            ngfft          48      48      48
             nkpt1         16
             nkpt2         61
            nstep          70
             nsym          48
           ntypat           2
              occ      2.000000  2.000000  2.000000  2.000000  2.000000  2.000000
                       2.000000  1.998085  1.996521  1.996521  1.885757  1.851768
                       1.611455  1.611455  1.589048  1.322045  0.874731  0.820279
                       0.703241  0.703241  0.407926  0.018329  0.000004  0.000004
                       0.000000  0.000000  0.000000  0.000000  0.000000  0.000000
                       0.000000  0.000000  0.000000  0.000000  0.000000  0.000000
                       0.000000  0.000000  0.000000  0.000000  0.000000  0.000000
                       0.000000  0.000000  0.000000
                       2.000000  2.000000  2.000000  2.000000  1.999999  1.999998
                       1.999998  1.999872  1.998060  1.998060  1.977398  1.975309
                       1.975309  1.943011  1.889572  1.784388  1.563339  1.563339
                       1.321214  1.238269  1.118800  0.418458  0.000000  0.000000
                       0.000000  0.000000  0.000000  0.000000  0.000000  0.000000
                       0.000000  0.000000  0.000000  0.000000  0.000000  0.000000
                       0.000000  0.000000  0.000000  0.000000  0.000000  0.000000
                       0.000000  0.000000  0.000000
                       2.000000  2.000000  2.000000  2.000000  2.000000  2.000000
                       2.000000  1.999404  1.994037  1.993012  1.973135  1.958356
                       1.937992  1.874433  1.758946  1.736926  1.473706  1.187893
                       1.088778  1.033541  0.551533  0.182384  0.000000  0.000000
                       0.000000  0.000000  0.000000  0.000000  0.000000  0.000000
                       0.000000  0.000000  0.000000  0.000000  0.000000  0.000000
                       0.000000  0.000000  0.000000  0.000000  0.000000  0.000000
                       0.000000  0.000000  0.000000
                       2.000000  2.000000  2.000000  2.000000  2.000000  2.000000
                       2.000000  1.998777  1.995364  1.995364  1.888649  1.888649
                       1.873069  1.873069  1.730010  1.529446  1.404101  1.034918
                       1.034918  0.669021  0.669021  0.000061  0.000061  0.000020
                       0.000000  0.000000  0.000000  0.000000  0.000000  0.000000
                       0.000000  0.000000  0.000000  0.000000  0.000000  0.000000
                       0.000000  0.000000  0.000000  0.000000  0.000000  0.000000
                       0.000000  0.000000  0.000000
                       2.000000  2.000000  2.000000  1.999999  1.999993  1.999979
                       1.999973  1.999957  1.999934  1.999877  1.993742  1.992039
                       1.958202  1.932956  1.918449  1.869261  1.755656  1.452969
                       1.368352  1.362092  1.150179  0.552919  0.000000  0.000000
                       0.000000  0.000000  0.000000  0.000000  0.000000  0.000000
                       0.000000  0.000000  0.000000  0.000000  0.000000  0.000000
                       0.000000  0.000000  0.000000  0.000000  0.000000  0.000000
                       0.000000  0.000000  0.000000
                       2.000000  2.000000  2.000000  1.999999  1.999998  1.999997
                       1.999993  1.999890  1.999774  1.998734  1.998071  1.993396
                       1.974403  1.955914  1.913720  1.818515  1.748700  1.355761
                       1.344330  1.254594  0.927144  0.286756  0.000007  0.000000
                       0.000000  0.000000  0.000000  0.000000  0.000000  0.000000
                       0.000000  0.000000  0.000000  0.000000  0.000000  0.000000
                       0.000000  0.000000  0.000000  0.000000  0.000000  0.000000
                       0.000000  0.000000  0.000000
                       2.000000  2.000000  2.000000  2.000000  1.999998  1.999997
                       1.999997  1.999869  1.999142  1.998711  1.992726  1.988659
                       1.983033  1.908283  1.907117  1.890591  1.579646  1.463528
                       1.346886  1.044868  0.794963  0.610451  0.000000  0.000000
                       0.000000  0.000000  0.000000  0.000000  0.000000  0.000000
                       0.000000  0.000000  0.000000  0.000000  0.000000  0.000000
                       0.000000  0.000000  0.000000  0.000000  0.000000  0.000000
                       0.000000  0.000000  0.000000
                       2.000000  2.000000  2.000000  2.000000  1.999999  1.999999
                       1.999999  1.999668  1.997316  1.996051  1.992436  1.991084
                       1.975474  1.933550  1.908332  1.847740  1.544360  1.408765
                       1.362583  0.906616  0.777939  0.004291  0.000702  0.000000
                       0.000000  0.000000  0.000000  0.000000  0.000000  0.000000
                       0.000000  0.000000  0.000000  0.000000  0.000000  0.000000
                       0.000000  0.000000  0.000000  0.000000  0.000000  0.000000
                       0.000000  0.000000  0.000000
                       2.000000  2.000000  2.000000  2.000000  1.999976  1.999969
                       1.999967  1.999949  1.999891  1.999865  1.999078  1.998588
                       1.972974  1.966894  1.955606  1.938114  1.896287  1.511947
                       1.510988  1.354138  0.368788  0.355952  0.000096  0.000063
                       0.000000  0.000000  0.000000  0.000000  0.000000  0.000000
                       0.000000  0.000000  0.000000  0.000000  0.000000  0.000000
                       0.000000  0.000000  0.000000  0.000000  0.000000  0.000000
                       0.000000  0.000000  0.000000
                       2.000000  2.000000  1.999999  1.999999  1.999996  1.999991
                       1.999980  1.999938  1.999828  1.999572  1.997319  1.997216
                       1.974536  1.968701  1.960696  1.888563  1.709092  1.364237
                       1.359849  0.956264  0.948052  0.831314  0.000000  0.000000
                       0.000000  0.000000  0.000000  0.000000  0.000000  0.000000
                       0.000000  0.000000  0.000000  0.000000  0.000000  0.000000
                       0.000000  0.000000  0.000000  0.000000  0.000000  0.000000
                       0.000000  0.000000  0.000000
                       2.000000  2.000000  2.000000  2.000000  1.999988  1.999973
                       1.999964  1.999863  1.999746  1.999555  1.998257  1.996021
                       1.987654  1.976152  1.952561  1.937923  1.772733  1.503108
                       1.247054  1.063710  0.946874  0.061910  0.005006  0.000000
                       0.000000  0.000000  0.000000  0.000000  0.000000  0.000000
                       0.000000  0.000000  0.000000  0.000000  0.000000  0.000000
                       0.000000  0.000000  0.000000  0.000000  0.000000  0.000000
                       0.000000  0.000000  0.000000
                       2.000000  2.000000  2.000000  2.000000  1.999990  1.999978
                       1.999974  1.999733  1.999238  1.999168  1.995064  1.992221
                       1.991928  1.982263  1.963286  1.933823  1.543644  1.484860
                       1.347303  0.901253  0.826712  0.119319  0.000001  0.000001
                       0.000000  0.000000  0.000000  0.000000  0.000000  0.000000
                       0.000000  0.000000  0.000000  0.000000  0.000000  0.000000
                       0.000000  0.000000  0.000000  0.000000  0.000000  0.000000
                       0.000000  0.000000  0.000000
                       2.000000  2.000000  2.000000  2.000000  1.999874  1.999836
                       1.999836  1.999823  1.999530  1.999530  1.999327  1.997912
                       1.991134  1.985696  1.985696  1.957159  1.857116  1.424433
                       1.424433  1.386363  0.134141  0.134141  0.011604  0.006995
                       0.000000  0.000000  0.000000  0.000000  0.000000  0.000000
                       0.000000  0.000000  0.000000  0.000000  0.000000  0.000000
                       0.000000  0.000000  0.000000  0.000000  0.000000  0.000000
                       0.000000  0.000000  0.000000
                       2.000000  2.000000  2.000000  2.000000  1.999886  1.999790
                       1.999399  1.998794  1.998619  1.997928  1.996006  1.995329
                       1.993622  1.988521  1.988035  1.968587  1.646481  1.264941
                       1.141320  0.909719  0.553749  0.523590  0.000647  0.000512
                       0.000000  0.000000  0.000000  0.000000  0.000000  0.000000
                       0.000000  0.000000  0.000000  0.000000  0.000000  0.000000
                       0.000000  0.000000  0.000000  0.000000  0.000000  0.000000
                       0.000000  0.000000  0.000000
                       2.000000  2.000000  2.000000  2.000000  1.999639  1.999620
                       1.999620  1.997027  1.996285  1.996285  1.993488  1.993488
                       1.991924  1.983513  1.983513  1.945288  1.493891  1.270222
                       1.270222  0.823665  0.823665  0.023418  0.023418  0.013379
                       0.000000  0.000000  0.000000  0.000000  0.000000  0.000000
                       0.000000  0.000000  0.000000  0.000000  0.000000  0.000000
                       0.000000  0.000000  0.000000  0.000000  0.000000  0.000000
                       0.000000  0.000000  0.000000
                       2.000000  2.000000  2.000000  2.000000  1.999206  1.999206
                       1.998716  1.998096  1.997113  1.997113  1.995602  1.992683
                       1.899926  1.899926  1.888841  1.848432  1.569598  1.012457
                       1.012457  0.784799  0.527954  0.527954  0.205936  0.178252
                       0.000000  0.000000  0.000000  0.000000  0.000000  0.000000
                       0.000000  0.000000  0.000000  0.000000  0.000000  0.000000
                       0.000000  0.000000  0.000000  0.000000  0.000000  0.000000
                       0.000000  0.000000  0.000000
           occopt           7
           shiftk1    -5.00000000E-01 -5.00000000E-01  5.00000000E-01
           shiftk2     5.00000000E-01  5.00000000E-01  5.00000000E-01
          spgroup         221
           strten1    -3.7083009768E-07 -3.7083009766E-07 -3.7083009756E-07
                       0.0000000000E+00  0.0000000000E+00  0.0000000000E+00
           symrel      1  0  0   0  1  0   0  0  1      -1  0  0   0 -1  0   0  0 -1
                      -1  0  0   0  1  0   0  0 -1       1  0  0   0 -1  0   0  0  1
                      -1  0  0   0 -1  0   0  0  1       1  0  0   0  1  0   0  0 -1
                       1  0  0   0 -1  0   0  0 -1      -1  0  0   0  1  0   0  0  1
                       0  1  0   1  0  0   0  0  1       0 -1  0  -1  0  0   0  0 -1
                       0 -1  0   1  0  0   0  0 -1       0  1  0  -1  0  0   0  0  1
                       0 -1  0  -1  0  0   0  0  1       0  1  0   1  0  0   0  0 -1
                       0  1  0  -1  0  0   0  0 -1       0 -1  0   1  0  0   0  0  1
                       0  0  1   1  0  0   0  1  0       0  0 -1  -1  0  0   0 -1  0
                       0  0 -1   1  0  0   0 -1  0       0  0  1  -1  0  0   0  1  0
                       0  0 -1  -1  0  0   0  1  0       0  0  1   1  0  0   0 -1  0
                       0  0  1  -1  0  0   0 -1  0       0  0 -1   1  0  0   0  1  0
                       1  0  0   0  0  1   0  1  0      -1  0  0   0  0 -1   0 -1  0
                      -1  0  0   0  0  1   0 -1  0       1  0  0   0  0 -1   0  1  0
                      -1  0  0   0  0 -1   0  1  0       1  0  0   0  0  1   0 -1  0
                       1  0  0   0  0 -1   0 -1  0      -1  0  0   0  0  1   0  1  0
                       0  1  0   0  0  1   1  0  0       0 -1  0   0  0 -1  -1  0  0
                       0 -1  0   0  0  1  -1  0  0       0  1  0   0  0 -1   1  0  0
                       0 -1  0   0  0 -1   1  0  0       0  1  0   0  0  1  -1  0  0
                       0  1  0   0  0 -1  -1  0  0       0 -1  0   0  0  1   1  0  0
                       0  0  1   0  1  0   1  0  0       0  0 -1   0 -1  0  -1  0  0
                       0  0 -1   0  1  0  -1  0  0       0  0  1   0 -1  0   1  0  0
                       0  0 -1   0 -1  0   1  0  0       0  0  1   0  1  0  -1  0  0
                       0  0  1   0 -1  0  -1  0  0       0  0 -1   0  1  0   1  0  0
           tolvrs1     1.00000000E-18
           tolvrs2     0.00000000E+00
           tolwfr1     0.00000000E+00
           tolwfr2     1.00000000E-12
           tsmear      3.58000000E-02 Hartree
            typat      1  2  2  2
              wtk1       0.02344    0.02344    0.09375    0.03125    0.04688    0.09375
                         0.09375    0.09375    0.04688    0.09375    0.09375    0.09375
                         0.02344    0.09375    0.03125    0.02344
              wtk2       1.00000    1.00000    1.00000    1.00000    1.00000    1.00000
                         1.00000    1.00000    1.00000    1.00000    1.00000    1.00000
                         1.00000    1.00000    1.00000    1.00000    1.00000    1.00000
                         1.00000    1.00000    1.00000    1.00000    1.00000    1.00000
                         1.00000    1.00000    1.00000    1.00000    1.00000    1.00000
                         1.00000    1.00000    1.00000    1.00000    1.00000    1.00000
                         1.00000    1.00000    1.00000    1.00000    1.00000    1.00000
                         1.00000    1.00000    1.00000    1.00000    1.00000    1.00000
                         1.00000    1.00000
                       outvars : Printing only first  50 k-points.
           xangst      0.0000000000E+00  0.0000000000E+00  0.0000000000E+00
                       1.7701242216E+00  1.7701242216E+00  0.0000000000E+00
                       0.0000000000E+00  1.7701242216E+00  1.7701242216E+00
                       1.7701242216E+00  0.0000000000E+00  1.7701242216E+00
            xcart      0.0000000000E+00  0.0000000000E+00  0.0000000000E+00
                       3.3450500000E+00  3.3450500000E+00  0.0000000000E+00
                       0.0000000000E+00  3.3450500000E+00  3.3450500000E+00
                       3.3450500000E+00  0.0000000000E+00  3.3450500000E+00
             xred      0.0000000000E+00  0.0000000000E+00  0.0000000000E+00
                       5.0000000000E-01  5.0000000000E-01  0.0000000000E+00
                       0.0000000000E+00  5.0000000000E-01  5.0000000000E-01
                       5.0000000000E-01  0.0000000000E+00  5.0000000000E-01
            znucl       26.00000   28.00000

================================================================================


- Timing analysis has been suppressed with timopt=0



================================================================================

 Suggested references for the acknowledgment of ABINIT usage.

 The users of ABINIT have little formal obligations with respect to the ABINIT group
 (those specified in the GNU General Public License, http://www.gnu.org/copyleft/gpl.txt).
 However, it is common practice in the scientific literature,
 to acknowledge the efforts of people that have made the research possible.
 In this spirit, please find below suggested citations of work written by ABINIT developers,
 corresponding to implementations inside of ABINIT that you have used in the present run.
 Note also that it will be of great value to readers of publications presenting these results,
 to read papers enabling them to understand the theoretical formalism and details
 of the ABINIT implementation.
 For information on why they are suggested, see also http://www.abinit.org/about/?text=acknowledgments.

 [1] ABINIT : First-principles approach of materials and nanosystem properties.
 X. Gonze, B. Amadon, P.-M. Anglade, J.-M. Beuken, F. Bottin, P. Boulanger, F. Bruneval,
 D. Caliste, R. Caracas, M. Cote, T. Deutsch, L. Genovese, Ph. Ghosez, M. Giantomassi
 S. Goedecker, D.R. Hamann, P. Hermet, F. Jollet, G. Jomard, S. Leroux, M. Mancini, S. Mazevet,
 M.J.T. Oliveira, G. Onida, Y. Pouillon, T. Rangel, G.-M. Rignanese, D. Sangalli, R. Shaltaf,
 M. Torrent, M.J. Verstraete, G. Zerah, J.W. Zwanziger
 Computer Phys. Comm. 180, 2582-2615 (2009).
 Comment : the third generic paper describing the ABINIT project.
 Note that a version of this paper, that is not formatted for Computer Phys. Comm. 
 is available at http://www.abinit.org/about/ABINIT_CPC_v10.pdf .
 The licence allows the authors to put it on the Web.

 [2] A brief introduction to the ABINIT software package.
 X. Gonze, G.-M. Rignanese, M. Verstraete, J.-M. Beuken, Y. Pouillon, R. Caracas, F. Jollet,
 M. Torrent, G. Zerah, M. Mikami, Ph. Ghosez, M. Veithen, J.-Y. Raty, V. Olevano, F. Bruneval,
 L. Reining, R. Godby, G. Onida, D.R. Hamann, and D.C. Allan.
 Z. Kristallogr. 220, 558-562 (2005).
 Comment : the second generic paper describing the ABINIT project. Note that this paper
 should be cited especially if you are using the GW part of ABINIT, as several authors
 of this part are not in the list of authors of the first or third paper.
 The .pdf of the latter paper is available at http://www.abinit.org/about/zfk_0505-06_558-562.pdf.
 Note that it should not redistributed (Copyright by Oldenburg Wissenshaftverlag,
 the licence allows the authors to put it on the Web).


 And optionally :

 [3] First-principles computation of material properties : the ABINIT software project. 
 X. Gonze, J.-M. Beuken, R. Caracas, F. Detraux, M. Fuchs, G.-M. Rignanese, L. Sindic,
 M. Verstraete, G. Zerah, F. Jollet, M. Torrent, A. Roy, M. Mikami, Ph. Ghosez, J.-Y. Raty, D.C. Allan.
 Computational Materials Science 25, 478-492 (2002). http://dx.doi.org/10.1016/S0927-0256(02)00325-7
 Comment : the original paper describing the ABINIT project.

 [4] Fast radix 2, 3, 4 and 5 kernels for Fast Fourier Transformations
 on computers with overlapping multiply-add instructions.
 S. Goedecker, SIAM J. on Scientific Computing 18, 1605 (1997).
-
- Proc.   0 individual time (sec): cpu=       1755.5  wall=       1770.7

================================================================================

 Calculation completed.
.Delivered   10 WARNINGs and   4 COMMENTs to log file.
+Overall time at end (sec) : cpu=       1755.5  wall=       1770.7
