  ABINIT 
  
  Give name for formatted input file: 
tbase4_7.in
  Give name for formatted output file:
tbase4_7.out
  Give root name for generic input files:
tbase4_xi
  Give root name for generic output files:
tbase4_xo
  Give root name for generic temporary files:
tbase4_x

 herald :  WARNING -
  The starting date is more than 3 years after the initial release
  of this version of ABINIT, namely Aug 2013.
  This version of ABINIT is not supported anymore.
  Action : please, switch to a more recent version of ABINIT.

.Version 7.4.3 of ABINIT 
.(MPI version, prepared for a i686_cygwin_gnu4.7 computer) 

.Copyright (C) 1998-2013 ABINIT group . 
 ABINIT comes with ABSOLUTELY NO WARRANTY.
 It is free software, and you are welcome to redistribute it
 under certain conditions (GNU General Public License,
 see ~abinit/COPYING or http://www.gnu.org/copyleft/gpl.txt).

 ABINIT is a project of the Universite Catholique de Louvain,
 Corning Inc. and other collaborators, see ~abinit/doc/developers/contributors.txt .
 Please read ~abinit/doc/users/acknowledgments.html for suggested
 acknowledgments of the ABINIT effort.
 For more information, see http://www.abinit.org .

.Starting date : Mon  4 Jun 2018.
- ( at 13h01 )
  

 herald :  WARNING -
  The starting date is more than 3 years after the initial release
  of this version of ABINIT, namely Aug 2013.
  This version of ABINIT is not supported anymore.
  Action : please, switch to a more recent version of ABINIT.

 herald :  WARNING -
  The starting date is more than 3 years after the initial release
  of this version of ABINIT, namely Aug 2013.
  This version of ABINIT is not supported anymore.
  Action : please, switch to a more recent version of ABINIT.

 ++++++++++++++++++++++++++++++++++++++++++++++++++++++++++++++++++++++++++++++

 === Build Information === 
  Version       : 7.4.3
  Build target  : i686_cygwin_gnu4.7
  Build date    : 20131019

 === Compiler Suite === 
  C compiler       : gnu
  CFLAGS           : -mfpmath=sse -msse2 -O2 -Wstrict-aliasing=2 -static
  C++ compiler     : gnu4.7
  CXXFLAGS         : -mfpmath=sse -msse2 -O2 -Wstrict-aliasing=2 -static
  Fortran compiler : gnu4.7
  FCFLAGS          : -mfpmath=sse -msse2 -O2 -ffree-line-length-none -Wstrict-aliasing=2 -static
  FC_LDFLAGS       : 

 === Optimizations === 
  Debug level        : no
  Optimization level : standard
  Architecture       : _

 === MPI === 
  Parallel build : yes
  Parallel I/O   : no
  Time tracing   : no
  GPU support    : no

 === Connectors / Fallbacks === 
  Connectors on : yes
  Fallbacks on  : yes
  DFT flavor    : libxc+atompaw+bigdft+wannier90
  FFT flavor    : none
  LINALG flavor : netlib
  MATH flavor   : none
  TIMER flavor  : abinit
  TRIO flavor   : netcdf+etsf_io

 === Experimental features === 
  Bindings            : no
  Exports             : no
  GW double-precision : yes

 === Bazaar branch information === 
  Branch ID : xavier.gonze@uclouvain.be-20131019063522-8wupmx7xtg5stywd
  Revision  : 490
  Committed : 0

 ++++++++++++++++++++++++++++++++++++++++++++++++++++++++++++++++++++++++++++++


 ++++++++++++++++++++++++++++++++++++++++++++++++++++++++++++++++++++++++++++++
 Default optimizations:
   --- None ---


 ++++++++++++++++++++++++++++++++++++++++++++++++++++++++++++++++++++++++++++++


 ++++++++++++++++++++++++++++++++++++++++++++++++++++++++++++++++++++++++++++++
 CPP options activated during the build:

                    CC_GNU                   CXX_GNU                    FC_GNU

           HAVE_BZR_BRANCH          HAVE_DFT_ATOMPAW           HAVE_DFT_BIGDFT

            HAVE_DFT_LIBXC        HAVE_DFT_WANNIER90 HAVE_FC_ALLOCATABLE_DT...

      HAVE_FC_COMMAND_LINE        HAVE_FC_CONTIGUOUS           HAVE_FC_CPUTIME

              HAVE_FC_EXIT             HAVE_FC_FLUSH             HAVE_FC_GAMMA

            HAVE_FC_GETENV          HAVE_FC_INT_QUAD             HAVE_FC_IOMSG

     HAVE_FC_ISO_C_BINDING        HAVE_FC_LONG_LINES              HAVE_FC_NULL

         HAVE_FC_STREAM_IO          HAVE_FORTRAN2003               HAVE_LINALG

        HAVE_LINALG_SERIAL                  HAVE_MPI                 HAVE_MPI1

 HAVE_MPI_TYPE_CREATE_S...           HAVE_OS_WINDOWS                HAVE_TIMER

         HAVE_TIMER_ABINIT            HAVE_TIMER_MPI         HAVE_TIMER_SERIAL

         HAVE_TRIO_ETSF_IO          HAVE_TRIO_NETCDF
 ++++++++++++++++++++++++++++++++++++++++++++++++++++++++++++++++++++++++++++++

- input  file    -> tbase4_7.in
- output file    -> tbase4_7.out
- root for input  files -> tbase4_xi
- root for output files -> tbase4_xo

-instrng :    87 lines of input have been read from file tbase4_7.in


 iofn2 : Please give name of formatted atomic psp file
 iofn2 : for atom type   1 , psp file is 13al.981214.fhi
  read the values zionpsp=  3.0 , pspcod=   6 , lmax=   2

 inpspheads : deduce mpsang  =   3, n1xccc  =   0.

 invars1m : enter jdtset=     1
 invars1 : treat image number     1

 symlatt : the Bravais lattice is tP (primitive tetragonal)
  xcart  is defined in input file
 ingeo : takes atomic coordinates from input array xcart

 symlatt : the Bravais lattice is tP (primitive tetragonal)

 symlatt : the Bravais lattice is tP (primitive tetragonal)
 symspgr : the symmetry operation no.   1 is the identity
 symspgr : the symmetry operation no.   2 is an inversion
 symaxes : the symmetry operation no.   3 is a 2-axis
 symplanes : the symmetry operation no.   4 is a mirror plane
 symaxes : the symmetry operation no.   5 is a 2-axis
 symplanes : the symmetry operation no.   6 is a mirror plane
 symaxes : the symmetry operation no.   7 is a 2-axis
 symplanes : the symmetry operation no.   8 is a mirror plane
 symplanes : the symmetry operation no.   9 is a mirror plane
 symaxes : the symmetry operation no.  10 is a tertiary 2-axis
 symspgr : the symmetry operation no.  11 is a -4 axis
 symaxes : the symmetry operation no.  12 is a 4-axis
 symplanes : the symmetry operation no.  13 is a mirror plane
 symaxes : the symmetry operation no.  14 is a tertiary 2-axis
 symspgr : the symmetry operation no.  15 is a -4 axis
 symaxes : the symmetry operation no.  16 is a 4-axis
 symspgr : spgroup= 123  P4/m m m   (=D4h^1)
 getkgrid : length of smallest supercell vector (bohr)=    3.002236E+01
       Simple Lattice Grid
 symkpt : found identity, with number  1

 invars1m : enter jdtset=     2
 invars1 : treat image number     1

 symlatt : the Bravais lattice is tP (primitive tetragonal)
  xcart  is defined in input file
 ingeo : takes atomic coordinates from input array xcart

 symlatt : the Bravais lattice is tP (primitive tetragonal)

 symlatt : the Bravais lattice is tP (primitive tetragonal)
 symspgr : the symmetry operation no.   1 is the identity
 symspgr : the symmetry operation no.   2 is an inversion
 symaxes : the symmetry operation no.   3 is a 2_1-axis
 symplanes : the symmetry operation no.   4 is a mirror plane
 symaxes : the symmetry operation no.   5 is a 2-axis
 symplanes : the symmetry operation no.   6 is a primary n plane
 symaxes : the symmetry operation no.   7 is a 2_1-axis
 symplanes : the symmetry operation no.   8 is a mirror plane
 symplanes : the symmetry operation no.   9 is a mirror plane
 symaxes : the symmetry operation no.  10 is a tertiary 2-axis
 symspgr : the symmetry operation no.  11 is a -4 axis
 symaxes : the symmetry operation no.  12 is a 4-axis
 symplanes : the symmetry operation no.  13 is a mirror plane
 symaxes : the symmetry operation no.  14 is a tertiary 2-axis
 symspgr : the symmetry operation no.  15 is a -4 axis
 symaxes : the symmetry operation no.  16 is a 4-axis
 symspgr : spgroup= 129  P4/n m m   (=D4h^7)
 getkgrid : length of smallest supercell vector (bohr)=    3.002236E+01
       Simple Lattice Grid
 symkpt : found identity, with number  1

 invars1m : enter jdtset=     3
 invars1 : treat image number     1

 symlatt : the Bravais lattice is tP (primitive tetragonal)
  xcart  is defined in input file
 ingeo : takes atomic coordinates from input array xcart

 symlatt : the Bravais lattice is tP (primitive tetragonal)

 symlatt : the Bravais lattice is tP (primitive tetragonal)
 symspgr : the symmetry operation no.   1 is the identity
 symspgr : the symmetry operation no.   2 is an inversion
 symaxes : the symmetry operation no.   3 is a 2-axis
 symplanes : the symmetry operation no.   4 is a mirror plane
 symaxes : the symmetry operation no.   5 is a 2-axis
 symplanes : the symmetry operation no.   6 is a mirror plane
 symaxes : the symmetry operation no.   7 is a 2-axis
 symplanes : the symmetry operation no.   8 is a mirror plane
 symplanes : the symmetry operation no.   9 is a mirror plane
 symaxes : the symmetry operation no.  10 is a tertiary 2-axis
 symspgr : the symmetry operation no.  11 is a -4 axis
 symaxes : the symmetry operation no.  12 is a 4-axis
 symplanes : the symmetry operation no.  13 is a mirror plane
 symaxes : the symmetry operation no.  14 is a tertiary 2-axis
 symspgr : the symmetry operation no.  15 is a -4 axis
 symaxes : the symmetry operation no.  16 is a 4-axis
 symspgr : spgroup= 123  P4/m m m   (=D4h^1)
 getkgrid : length of smallest supercell vector (bohr)=    3.002236E+01
       Simple Lattice Grid
 symkpt : found identity, with number  1
 invars2: take the default value of fband=  5.00000000E-01
 getkgrid : length of smallest supercell vector (bohr)=    3.002236E+01
       Simple Lattice Grid
 symkpt : found identity, with number  1
  dtset%nelect=   9.0000000000000000     
 chkneu : initialized the occupation numbers for occopt=    4
    spin-unpolarized case :
  2.00  2.00  2.00  2.00  1.00  0.00  0.00
 invars2: take the default value of fband=  5.00000000E-01
 getkgrid : length of smallest supercell vector (bohr)=    3.002236E+01
       Simple Lattice Grid
 symkpt : found identity, with number  1
  dtset%nelect=   12.000000000000000     
 chkneu : initialized the occupation numbers for occopt=    4
    spin-unpolarized case :
  2.00  2.00  2.00  2.00  2.00  2.00  0.00  0.00
 invars2: take the default value of fband=  5.00000000E-01
 getkgrid : length of smallest supercell vector (bohr)=    3.002236E+01
       Simple Lattice Grid
 symkpt : found identity, with number  1
  dtset%nelect=   15.000000000000000     
 chkneu : initialized the occupation numbers for occopt=    4
    spin-unpolarized case :
  2.00  2.00  2.00  2.00  2.00  2.00  2.00  1.00  0.00  0.00  0.00
  mpi_setup : enter 
 mpi_setup1: mkmem  undefined in the input file. Use default mkmem  = nkpt
 mpi_setup1: With nkpt_me=    6 and mkmem  =     6, ground state wf handled in core.
 mpi_setup1: mkqmem undefined in the input file. Use default mkqmem = nkpt
 mpi_setup1: With nkpt_me=    6 and mkqmem =     6, ground state wf handled in core.
 mpi_setup1: mk1mem undefined in the input file. Use default mk1mem = nkpt
 mpi_setup1: With nkpt_me=    6 and mk1mem =     6, ground state wf handled in core.

 getng.F90:200:WARNING
   The second and third dimension of the FFT grid,    0    0  were imposed to be multiple of the number of processors for the FFT,    1
 For input ecut=  6.000000E+00 best grid ngfft=      12      12      45
       max ecut=  6.307140E+00

 ==== FFT mesh ====
  FFT mesh divisions ........................    12   12   45
  Augmented FFT divisions ...................    13   13   45
  FFT algorithm .............................   112
  FFT cache size ............................    16
 getmpw: optimal value of mpw=     378
 mpi_setup1: mkmem  undefined in the input file. Use default mkmem  = nkpt
 mpi_setup1: With nkpt_me=    6 and mkmem  =     6, ground state wf handled in core.
 mpi_setup1: mkqmem undefined in the input file. Use default mkqmem = nkpt
 mpi_setup1: With nkpt_me=    6 and mkqmem =     6, ground state wf handled in core.
 mpi_setup1: mk1mem undefined in the input file. Use default mk1mem = nkpt
 mpi_setup1: With nkpt_me=    6 and mk1mem =     6, ground state wf handled in core.
 For input ecut=  6.000000E+00 best grid ngfft=      12      12      50
       max ecut=  6.083275E+00

 ==== FFT mesh ====
  FFT mesh divisions ........................    12   12   50
  Augmented FFT divisions ...................    13   13   50
  FFT algorithm .............................   112
  FFT cache size ............................    16
 getmpw: optimal value of mpw=     452
 mpi_setup1: mkmem  undefined in the input file. Use default mkmem  = nkpt
 mpi_setup1: With nkpt_me=    6 and mkmem  =     6, ground state wf handled in core.
 mpi_setup1: mkqmem undefined in the input file. Use default mkqmem = nkpt
 mpi_setup1: With nkpt_me=    6 and mkqmem =     6, ground state wf handled in core.
 mpi_setup1: mk1mem undefined in the input file. Use default mk1mem = nkpt
 mpi_setup1: With nkpt_me=    6 and mk1mem =     6, ground state wf handled in core.
 For input ecut=  6.000000E+00 best grid ngfft=      12      12      60
       max ecut=  6.307140E+00

 ==== FFT mesh ====
  FFT mesh divisions ........................    12   12   60
  Augmented FFT divisions ...................    13   13   60
  FFT algorithm .............................   112
  FFT cache size ............................    16
 getmpw: optimal value of mpw=     532

 DATASET    1 : space group P4/m m m (#123); Bravais tP (primitive tetrag.)

 getdim_nloc : deduce lmnmax  =   9, lnmax  =   3,
                      lmnmaxso=   9, lnmaxso=   3.
 For input ecut=  2.545795E+00 best grid ngfft=       8       8      30
       max ecut=  2.803173E+00

 ==== FFT mesh ====
  FFT mesh divisions ........................     8    8   30
  Augmented FFT divisions ...................     9    9   30
  FFT algorithm .............................   101
  FFT cache size ............................    16
 getmpw: optimal value of mpw=      85
 setmqgrid : COMMENT -
  The number of points "mqgrid" in reciprocal space used for the
  description of the pseudopotentials has been set automatically
  by abinit to :     3001.
 memory : analysis of memory needs
================================================================================
 Values of the parameters that define the memory need for DATASET  1.
   intxc =         0  ionmov =         2    iscf =         7 xclevel =         1
  lmnmax =         3   lnmax =         3   mband =         7  mffmem =         1
P  mgfft =        45   mkmem =         6 mpssoang=         3     mpw =       378
  mqgrid =      3001   natom =         3    nfft =      6480    nkpt =         6
  nloalg =         4  nspden =         1 nspinor =         1  nsppol =         1
    nsym =        16  n1xccc =         0  ntypat =         1  occopt =         4
 For the susceptibility and dielectric matrices, or tddft :
   mgfft =        30  nbnd_in_blk=     4    nfft =      1920     npw =        85
================================================================================
P This job should need less than                       3.644 Mbytes of memory.
  Rough estimation (10% accuracy) of disk space for files :
_ WF disk file :      0.244 Mbytes ; DEN or POT disk file :      0.051 Mbytes.
================================================================================

 Biggest array : f_fftgr(disk), with      0.7930 MBytes.
 memana : allocated an array of      0.793 Mbytes, for testing purposes.
 memana : allocated       3.644 Mbytes, for testing purposes.
 The job will continue.

 DATASET    2 : space group P4/n m m (#129); Bravais tP (primitive tetrag.)

 getdim_nloc : deduce lmnmax  =   9, lnmax  =   3,
                      lmnmaxso=   9, lnmaxso=   3.
 For input ecut=  2.545795E+00 best grid ngfft=       8       8      36
       max ecut=  2.803173E+00

 ==== FFT mesh ====
  FFT mesh divisions ........................     8    8   36
  Augmented FFT divisions ...................     9    9   36
  FFT algorithm .............................   101
  FFT cache size ............................    16
 getmpw: optimal value of mpw=     103
 setmqgrid : COMMENT -
  The number of points "mqgrid" in reciprocal space used for the
  description of the pseudopotentials has been set automatically
  by abinit to :     3001.
 memory : analysis of memory needs
================================================================================
 Values of the parameters that define the memory need for DATASET  2.
   intxc =         0  ionmov =         2    iscf =         7 xclevel =         1
  lmnmax =         3   lnmax =         3   mband =         8  mffmem =         1
P  mgfft =        50   mkmem =         6 mpssoang=         3     mpw =       452
  mqgrid =      3001   natom =         4    nfft =      7200    nkpt =         6
  nloalg =         4  nspden =         1 nspinor =         1  nsppol =         1
    nsym =        16  n1xccc =         0  ntypat =         1  occopt =         4
 For the susceptibility and dielectric matrices, or tddft :
   mgfft =        36  nbnd_in_blk=     4    nfft =      2304     npw =       103
================================================================================
P This job should need less than                       4.081 Mbytes of memory.
  Rough estimation (10% accuracy) of disk space for files :
_ WF disk file :      0.333 Mbytes ; DEN or POT disk file :      0.057 Mbytes.
================================================================================

 Biggest array : f_fftgr(disk), with      0.8809 MBytes.
 memana : allocated an array of      0.881 Mbytes, for testing purposes.
 memana : allocated       4.081 Mbytes, for testing purposes.
 The job will continue.

 DATASET    3 : space group P4/m m m (#123); Bravais tP (primitive tetrag.)

 getdim_nloc : deduce lmnmax  =   9, lnmax  =   3,
                      lmnmaxso=   9, lnmaxso=   3.
 For input ecut=  2.545795E+00 best grid ngfft=       8       8      40
       max ecut=  2.803173E+00

 ==== FFT mesh ====
  FFT mesh divisions ........................     8    8   40
  Augmented FFT divisions ...................     9    9   40
  FFT algorithm .............................   101
  FFT cache size ............................    16
 getmpw: optimal value of mpw=     121
 setmqgrid : COMMENT -
  The number of points "mqgrid" in reciprocal space used for the
  description of the pseudopotentials has been set automatically
  by abinit to :     3001.
 memory : analysis of memory needs
================================================================================
 Values of the parameters that define the memory need for DATASET  3.
   intxc =         0  ionmov =         2    iscf =         7 xclevel =         1
  lmnmax =         3   lnmax =         3   mband =        11  mffmem =         1
P  mgfft =        60   mkmem =         6 mpssoang=         3     mpw =       532
  mqgrid =      3001   natom =         5    nfft =      8640    nkpt =         6
  nloalg =         4  nspden =         1 nspinor =         1  nsppol =         1
    nsym =        16  n1xccc =         0  ntypat =         1  occopt =         4
 For the susceptibility and dielectric matrices, or tddft :
   mgfft =        40  nbnd_in_blk=     6    nfft =      2560     npw =       121
================================================================================
P This job should need less than                       4.857 Mbytes of memory.
  Rough estimation (10% accuracy) of disk space for files :
_ WF disk file :      0.538 Mbytes ; DEN or POT disk file :      0.068 Mbytes.
================================================================================

 Biggest array : f_fftgr(disk), with      1.0567 MBytes.
 memana : allocated an array of      1.057 Mbytes, for testing purposes.
 memana : allocated       4.857 Mbytes, for testing purposes.
 The job will continue.
--------------------------------------------------------------------------------
------------- Echo of variables that govern the present computation ------------
--------------------------------------------------------------------------------
-
- outvars: echo of selected default values                                      
-   accesswff0 =  0 , fftalg0 =112 , wfoptalg0 =  0
-
- outvars: echo of global parameters not present in the input file              
-  max_nthreads =    0
-
 -outvars: echo values of preprocessed input variables --------
 
 These variables are accessible in NetCDF format (tbase4_xo_OUT.nc)

            acell      7.5055909000E+00  7.5055909000E+00  7.5055909000E+00 Bohr
              amu      2.69815390E+01
      chksymbreak           0
             ecut      6.00000000E+00 Hartree
           ionmov           2
           iprcel          45
           jdtset        1    2    3
              kpt      0.00000000E+00  1.25000000E-01  0.00000000E+00
                       0.00000000E+00  3.75000000E-01  0.00000000E+00
                       1.25000000E-01  2.50000000E-01  0.00000000E+00
                       1.25000000E-01  5.00000000E-01  0.00000000E+00
                       2.50000000E-01  3.75000000E-01  0.00000000E+00
                       3.75000000E-01  5.00000000E-01  0.00000000E+00
         kptrlatt        4   -4    0      4    4    0      0    0    1
          kptrlen      3.00223636E+01
P           mkmem           6
            natom1          3
            natom2          4
            natom3          5
            nband1          7
            nband2          8
            nband3         11
           ndtset           3
            ngfft1         12      12      45
            ngfft2         12      12      50
            ngfft3         12      12      60
             nkpt           6
            nstep          10
             nsym          16
            ntime          10
           ntypat           1
              occ1     2.000000  2.000000  2.000000  2.000000  1.000000  0.000000
                       0.000000
                       2.000000  2.000000  2.000000  2.000000  1.000000  0.000000
                       0.000000
                       2.000000  2.000000  2.000000  2.000000  1.000000  0.000000
                       0.000000
                       2.000000  2.000000  2.000000  2.000000  1.000000  0.000000
                       0.000000
                       2.000000  2.000000  2.000000  2.000000  1.000000  0.000000
                       0.000000
                       2.000000  2.000000  2.000000  2.000000  1.000000  0.000000
                       0.000000
              occ2     2.000000  2.000000  2.000000  2.000000  2.000000  2.000000
                       0.000000  0.000000
                       2.000000  2.000000  2.000000  2.000000  2.000000  2.000000
                       0.000000  0.000000
                       2.000000  2.000000  2.000000  2.000000  2.000000  2.000000
                       0.000000  0.000000
                       2.000000  2.000000  2.000000  2.000000  2.000000  2.000000
                       0.000000  0.000000
                       2.000000  2.000000  2.000000  2.000000  2.000000  2.000000
                       0.000000  0.000000
                       2.000000  2.000000  2.000000  2.000000  2.000000  2.000000
                       0.000000  0.000000
              occ3     2.000000  2.000000  2.000000  2.000000  2.000000  2.000000
                       2.000000  1.000000  0.000000  0.000000  0.000000
                       2.000000  2.000000  2.000000  2.000000  2.000000  2.000000
                       2.000000  1.000000  0.000000  0.000000  0.000000
                       2.000000  2.000000  2.000000  2.000000  2.000000  2.000000
                       2.000000  1.000000  0.000000  0.000000  0.000000
                       2.000000  2.000000  2.000000  2.000000  2.000000  2.000000
                       2.000000  1.000000  0.000000  0.000000  0.000000
                       2.000000  2.000000  2.000000  2.000000  2.000000  2.000000
                       2.000000  1.000000  0.000000  0.000000  0.000000
                       2.000000  2.000000  2.000000  2.000000  2.000000  2.000000
                       2.000000  1.000000  0.000000  0.000000  0.000000
           occopt           4
        optforces           1
            rprim1     5.0000000000E-01 -5.0000000000E-01  0.0000000000E+00
                       5.0000000000E-01  5.0000000000E-01  0.0000000000E+00
                       0.0000000000E+00  0.0000000000E+00  2.5000000000E+00
            rprim2     5.0000000000E-01 -5.0000000000E-01  0.0000000000E+00
                       5.0000000000E-01  5.0000000000E-01  0.0000000000E+00
                       0.0000000000E+00  0.0000000000E+00  3.0000000000E+00
            rprim3     5.0000000000E-01 -5.0000000000E-01  0.0000000000E+00
                       5.0000000000E-01  5.0000000000E-01  0.0000000000E+00
                       0.0000000000E+00  0.0000000000E+00  3.5000000000E+00
           shiftk     -5.00000000E-01  5.00000000E-01  0.00000000E+00
          spgroup1        123
          spgroup2        129
          spgroup3        123
           symrel      1  0  0   0  1  0   0  0  1      -1  0  0   0 -1  0   0  0 -1
                      -1  0  0   0  1  0   0  0 -1       1  0  0   0 -1  0   0  0  1
                      -1  0  0   0 -1  0   0  0  1       1  0  0   0  1  0   0  0 -1
                       1  0  0   0 -1  0   0  0 -1      -1  0  0   0  1  0   0  0  1
                       0  1  0   1  0  0   0  0  1       0 -1  0  -1  0  0   0  0 -1
                       0 -1  0   1  0  0   0  0 -1       0  1  0  -1  0  0   0  0  1
                       0 -1  0  -1  0  0   0  0  1       0  1  0   1  0  0   0  0 -1
                       0  1  0  -1  0  0   0  0 -1       0 -1  0   1  0  0   0  0  1
            tnons1     0.0000000  0.0000000  0.0000000     0.0000000  0.0000000  0.4000000
                       0.0000000  0.0000000  0.4000000     0.0000000  0.0000000  0.0000000
                       0.0000000  0.0000000  0.0000000     0.0000000  0.0000000  0.4000000
                       0.0000000  0.0000000  0.4000000     0.0000000  0.0000000  0.0000000
                       0.0000000  0.0000000  0.0000000     0.0000000  0.0000000  0.4000000
                       0.0000000  0.0000000  0.4000000     0.0000000  0.0000000  0.0000000
                       0.0000000  0.0000000  0.0000000     0.0000000  0.0000000  0.4000000
                       0.0000000  0.0000000  0.4000000     0.0000000  0.0000000  0.0000000
            tnons2     0.0000000  0.0000000  0.0000000     0.5000000  0.5000000  0.5000000
                       0.5000000  0.5000000  0.5000000     0.0000000  0.0000000  0.0000000
                       0.0000000  0.0000000  0.0000000     0.5000000  0.5000000  0.5000000
                       0.5000000  0.5000000  0.5000000     0.0000000  0.0000000  0.0000000
                       0.0000000  0.0000000  0.0000000     0.5000000  0.5000000  0.5000000
                       0.5000000  0.5000000  0.5000000     0.0000000  0.0000000  0.0000000
                       0.0000000  0.0000000  0.0000000     0.5000000  0.5000000  0.5000000
                       0.5000000  0.5000000  0.5000000     0.0000000  0.0000000  0.0000000
            tnons3     0.0000000  0.0000000  0.0000000     0.0000000  0.0000000 -0.4285714
                       0.0000000  0.0000000 -0.4285714     0.0000000  0.0000000  0.0000000
                       0.0000000  0.0000000  0.0000000     0.0000000  0.0000000 -0.4285714
                       0.0000000  0.0000000 -0.4285714     0.0000000  0.0000000  0.0000000
                       0.0000000  0.0000000  0.0000000     0.0000000  0.0000000 -0.4285714
                       0.0000000  0.0000000 -0.4285714     0.0000000  0.0000000  0.0000000
                       0.0000000  0.0000000  0.0000000     0.0000000  0.0000000 -0.4285714
                       0.0000000  0.0000000 -0.4285714     0.0000000  0.0000000  0.0000000
           toldff      5.00000000E-05
           tolmxf      5.00000000E-04
            typat1     1  1  1
            typat2     1  1  1  1
            typat3     1  1  1  1  1
              wtk        0.12500    0.12500    0.25000    0.12500    0.25000    0.12500
           xangst1     0.0000000000E+00  0.0000000000E+00  0.0000000000E+00
                       0.0000000000E+00  1.9858938206E+00  1.9858938206E+00
                       0.0000000000E+00  0.0000000000E+00  3.9717876413E+00
           xangst2     0.0000000000E+00  0.0000000000E+00  0.0000000000E+00
                       0.0000000000E+00  1.9858938206E+00  1.9858938206E+00
                       0.0000000000E+00  0.0000000000E+00  3.9717876413E+00
                       0.0000000000E+00  1.9858938206E+00  5.9576814619E+00
           xangst3     0.0000000000E+00  0.0000000000E+00  0.0000000000E+00
                       0.0000000000E+00  1.9858938206E+00  1.9858938206E+00
                       0.0000000000E+00  0.0000000000E+00  3.9717876413E+00
                       0.0000000000E+00  1.9858938206E+00  5.9576814619E+00
                       0.0000000000E+00  0.0000000000E+00  7.9435752826E+00
            xcart1     0.0000000000E+00  0.0000000000E+00  0.0000000000E+00
                       0.0000000000E+00  3.7527954500E+00  3.7527954500E+00
                       0.0000000000E+00  0.0000000000E+00  7.5055909000E+00
            xcart2     0.0000000000E+00  0.0000000000E+00  0.0000000000E+00
                       0.0000000000E+00  3.7527954500E+00  3.7527954500E+00
                       0.0000000000E+00  0.0000000000E+00  7.5055909000E+00
                       0.0000000000E+00  3.7527954500E+00  1.1258386350E+01
            xcart3     0.0000000000E+00  0.0000000000E+00  0.0000000000E+00
                       0.0000000000E+00  3.7527954500E+00  3.7527954500E+00
                       0.0000000000E+00  0.0000000000E+00  7.5055909000E+00
                       0.0000000000E+00  3.7527954500E+00  1.1258386350E+01
                       0.0000000000E+00  0.0000000000E+00  1.5011181800E+01
             xred1     0.0000000000E+00  0.0000000000E+00  0.0000000000E+00
                      -5.0000000000E-01  5.0000000000E-01  2.0000000000E-01
                       0.0000000000E+00  0.0000000000E+00  4.0000000000E-01
             xred2     0.0000000000E+00  0.0000000000E+00  0.0000000000E+00
                      -5.0000000000E-01  5.0000000000E-01  1.6666666667E-01
                       0.0000000000E+00  0.0000000000E+00  3.3333333333E-01
                      -5.0000000000E-01  5.0000000000E-01  5.0000000000E-01
             xred3     0.0000000000E+00  0.0000000000E+00  0.0000000000E+00
                      -5.0000000000E-01  5.0000000000E-01  1.4285714286E-01
                       0.0000000000E+00  0.0000000000E+00  2.8571428571E-01
                      -5.0000000000E-01  5.0000000000E-01  4.2857142857E-01
                       0.0000000000E+00  0.0000000000E+00  5.7142857143E-01
            znucl       13.00000

================================================================================

 chkinp: machine precision is   2.2204460492503131E-16

 chkinp: Checking input parameters for consistency, jdtset=   1.

 chkinp: Checking input parameters for consistency, jdtset=   2.

 chkinp: Checking input parameters for consistency, jdtset=   3.
 DATA TYPE INFORMATION: 
 REAL:      Data type name: REAL(DP) 
            Kind value:      8
            Precision:      15
            Smallest nonnegligible quantity relative to 1:  0.22204460E-15
            Smallest positive number:                       0.22250739-307
            Largest representable number:                   0.17976931+309
 INTEGER:   Data type name: INTEGER(default) 
            Kind value: 4
            Bit size:   32
            Largest representable number: 2147483647
 LOGICAL:   Data type name: LOGICAL 
            Kind value: 4
 CHARACTER: Data type name: CHARACTER             Kind value: 1
 ==== OpenMP parallelism is OFF ====
 
  ==== Using MPI-1 specifications ==== 
  MPI-IO support is OFF
  xmpi_tag_ub ................   2147483647
  xmpi_bsize_ch ..............            1
  xmpi_bsize_int .............            4
  xmpi_bsize_sp ..............            4
  xmpi_bsize_dp ..............            8
  xmpi_bsize_spc .............            8
  xmpi_bsize_dpc .............           16
  xmpio_bsize_frm ............            0
  xmpi_address_kind ..........            8
  xmpi_offset_kind ...........            8
  MPI_WTICK ..................    5.7018069026074364E-007

================================================================================
== DATASET  1 ==================================================================
-   nproc =    1

 setmqgrid : COMMENT -
  The number of points "mqgrid" in reciprocal space used for the
  description of the pseudopotentials has been set automatically
  by abinit to :     3001.

 getdim_nloc : deduce lmnmax  =   9, lnmax  =   3,
                      lmnmaxso=   9, lnmaxso=   3.
 Exchange-correlation functional for the present dataset will be:
  LDA: new Teter (4/93) with spin-polarized option - ixc=1
 Citation for XC functional:
  S. Goedecker, M. Teter, J. Huetter, PRB 54, 1703 (1996)

 Unit cell volume ucvol=  5.2852396E+02 bohr^3
 Angles (23,13,12)=  9.00000000E+01  9.00000000E+01  9.00000000E+01 degrees

 getcut: wavevector=  0.0000  0.0000  0.0000  ngfft=  12  12  45
         ecut(hartree)=      6.000   => boxcut(ratio)=   2.05055
- pspini: atom type   1  psp file is 13al.981214.fhi
- pspatm: opening atomic psp file    13al.981214.fhi
- Aluminum, fhi98PP : Hamann-type, LDA CA PerdewWang, l=2 local
- 13.00000   3.00000    981214                znucl, zion, pspdat
    6    7    2    2       493   0.00000      pspcod,pspxc,lmax,lloc,mmax,r2well

 pspatm_abinit: WARNING -
  Pseudopotential file pspxc=       7,
  not equal to input ixc=       1.
  These parameters must agree to get the same xc 
  in ABINIT code as in psp construction.
  Action : check psp design or input file.
  Assume experienced user. Execution will continue.

  No XC core correction.
  1.024700          amesh (Hamman grid)
 pspatm: epsatm=    1.36305739
         --- l  ekb(1:nproj) -->
             0    1.768744
             1    0.900554
 pspatm: atomic psp has been read  and splines computed

   3.68025494E+01                                ecore*ucvol(ha*bohr**3)
   1  3  3  1  1  3  3  1  1  3  3  1  1  3  3  1
   2  2  2  2  2  2  2  2  2  2  2  2  2  2  2  2
   3  1  1  3  3  1  1  3  3  1  1  3  3  1  1  3
 wfconv:     7 bands initialized randomly with npw=   356, for ikpt=     1
 wfconv:     7 bands initialized randomly with npw=   368, for ikpt=     2
 wfconv:     7 bands initialized randomly with npw=   362, for ikpt=     3
 wfconv:     7 bands initialized randomly with npw=   368, for ikpt=     4
 wfconv:     7 bands initialized randomly with npw=   378, for ikpt=     5
 wfconv:     7 bands initialized randomly with npw=   372, for ikpt=     6

_setup2: Arith. and geom. avg. npw (full set) are     368.000     367.927
 initro : for itypat=  1, take decay length=      1.2500,
 initro : indeed, coreel=     10.0000, nval=  3 and densty=  0.0000E+00.

================================================================================
 Could no open tbase4_xo_DS1_HIST, starting from scratch

=== [ionmov= 2] Broyden-Fletcher-Goldfard-Shanno method (forces)            
================================================================================

--- Iteration: ( 1/10) Internal Cycle: (1/1)
--------------------------------------------------------------------------------

 Cartesian coordinates (xcart) [bohr]
  0.00000000000000E+00  0.00000000000000E+00  0.00000000000000E+00
  0.00000000000000E+00  3.75279545000000E+00  3.75279545000000E+00
  0.00000000000000E+00  0.00000000000000E+00  7.50559090000000E+00
 Reduced coordinates (xred)
  0.00000000000000E+00  0.00000000000000E+00  0.00000000000000E+00
 -5.00000000000000E-01  5.00000000000000E-01  2.00000000000000E-01
  0.00000000000000E+00  0.00000000000000E+00  4.00000000000000E-01

---SELF-CONSISTENT-FIELD CONVERGENCE--------------------------------------------
 For input ecut=  2.545795E+00 best grid ngfft=       8       8      30
       max ecut=  2.803173E+00

 ==== FFT mesh ====
  FFT mesh divisions ........................     8    8   30
  Augmented FFT divisions ...................     9    9   30
  FFT algorithm .............................   100
  FFT cache size ............................    16
 getmpw: optimal value of mpw=      85
   1  3  3  1  1  3  3  1  1  3  3  1  1  3  3  1
   2  2  2  2  2  2  2  2  2  2  2  2  2  2  2  2
   3  1  1  3  3  1  1  3  3  1  1  3  3  1  1  3

 getcut: wavevector=  0.0000  0.0000  0.0000  ngfft=  12  12  45
         ecut(hartree)=      6.000   => boxcut(ratio)=   2.05055

 ewald : nr and ng are    3 and   31

 ITER STEP NUMBER     1
 vtorho : nnsclo_now=  2, note that nnsclo,dbl_nnsclo,istep=  0 0  1
 newocc : new Fermi energy is       0.092208 , with nelect=      9.000000
  Number of bissection calls =  49
 newocc : computed new occ. numbers for occopt=    4 , spin-unpolarized case.
 2.000 2.000 2.000 2.067 0.003 0.001 0.000
 2.000 2.000 2.000 2.061 2.139 0.002 0.003
 2.000 2.000 2.001 1.857 0.699 0.005 0.000
 2.000 2.000 2.000 2.000 0.918 0.203 0.001
 2.000 2.000 2.003 2.015 1.467 0.005 0.004
 2.000 2.000 2.124 2.140 0.203 0.022 0.002
mkrho: echo density (plane-wave part only)
 Total charge density [el/Bohr^3]
,     Maximum=    3.7399E-02  at reduced coord.    0.0000    0.6667    0.3556
,     Minimum=    8.5292E-05  at reduced coord.    0.5000    0.5000    0.6889
,  Integrated=    9.0000E+00
 Total charge density [el/Bohr^3]
,     Maximum=    3.7399E-02  at reduced coord.    0.0000    0.6667    0.3556
,     Minimum=    8.5292E-05  at reduced coord.    0.5000    0.5000    0.6889
,  Integrated=    9.0000E+00
 ETOT  1  -6.1883559736790    -6.188E+00 3.166E-03 1.753E+02 8.073E-03 8.073E-03
 scprqt: <Vxc>= -2.6162680E-01 hartree

 dielmt : 15 largest eigenvalues of the hermitian RPA dielectric matrix
  1-5  : 8.94679E+00 5.38988E+00 2.52434E+00 2.10237E+00 1.80731E+00
  6-10 : 1.80731E+00 1.78258E+00 1.76552E+00 1.73774E+00 1.73774E+00
  11-15: 1.70764E+00 1.69177E+00 1.62430E+00 1.62161E+00 1.58565E+00

 dielmt : 5 smallest eigenvalues of the hermitian RPA dielectric matrix
  1-5  : 1.00000E+00 1.00617E+00 1.00658E+00 1.00658E+00 1.00671E+00

Simple mixing update:
  residual square of the potential :   10.652644621075046

 ITER STEP NUMBER     2
 vtorho : nnsclo_now=  2, note that nnsclo,dbl_nnsclo,istep=  0 0  2
 newocc : new Fermi energy is       0.121948 , with nelect=      9.000000
  Number of bissection calls =  49
 newocc : computed new occ. numbers for occopt=    4 , spin-unpolarized case.
 2.000 2.000 2.000 2.141 0.004 0.000 0.000
 2.000 2.000 2.000 2.028 2.135 0.056 0.004
 2.000 2.000 2.000 1.309 1.136 0.005 0.001
 2.000 2.000 2.000 2.000 1.501 0.335 0.002
 2.000 2.000 2.021 2.127 1.141 0.005 0.004
 2.000 2.000 2.141 2.137 0.013 0.000 0.005
mkrho: echo density (plane-wave part only)
 Total charge density [el/Bohr^3]
,     Maximum=    3.5129E-02  at reduced coord.    0.0000    0.6667    0.3778
,     Minimum=    2.2074E-04  at reduced coord.    0.5000    0.5000    0.6889
,  Integrated=    9.0000E+00
 Total charge density [el/Bohr^3]
,     Maximum=    3.5129E-02  at reduced coord.    0.0000    0.6667    0.3778
,     Minimum=    2.2074E-04  at reduced coord.    0.5000    0.5000    0.6889
,  Integrated=    9.0000E+00
 ETOT  2  -6.2520805584515    -6.372E-02 2.065E-04 5.483E+00 1.306E-02 4.991E-03
 scprqt: <Vxc>= -2.6961877E-01 hartree

 Pulay update with  1 previous iterations:
 mixing of old trial potential : alpha(m:m-4)=  0.822      0.178

 ITER STEP NUMBER     3
 vtorho : nnsclo_now=  1, note that nnsclo,dbl_nnsclo,istep=  0 0  3
 newocc : new Fermi energy is       0.109738 , with nelect=      9.000000
  Number of bissection calls =  49
 newocc : computed new occ. numbers for occopt=    4 , spin-unpolarized case.
 2.000 2.000 2.000 2.142 0.005 0.001 0.000
 2.000 2.000 2.000 2.030 2.134 0.044 0.004
 2.000 2.000 2.000 1.256 1.242 0.005 0.000
 2.000 2.000 2.000 2.000 1.460 0.309 0.002
 2.000 2.000 2.016 2.121 1.131 0.005 0.004
 2.000 2.000 2.141 2.137 0.022 0.000 0.005
mkrho: echo density (plane-wave part only)
 Total charge density [el/Bohr^3]
,     Maximum=    3.5073E-02  at reduced coord.    0.0000    0.6667    0.3778
,     Minimum=    1.8756E-04  at reduced coord.    0.5000    0.5000    0.6889
,  Integrated=    9.0000E+00
 Total charge density [el/Bohr^3]
,     Maximum=    3.5073E-02  at reduced coord.    0.0000    0.6667    0.3778
,     Minimum=    1.8756E-04  at reduced coord.    0.5000    0.5000    0.6889
,  Integrated=    9.0000E+00
 ETOT  3  -6.2539319959764    -1.851E-03 2.999E-05 2.050E-02 8.162E-04 4.175E-03
 scprqt: <Vxc>= -2.6839411E-01 hartree

 Pulay update with  2 previous iterations:
 mixing of old trial potential : alpha(m:m-4)=   1.19     -0.151     -0.355E-01

 ITER STEP NUMBER     4
 vtorho : nnsclo_now=  1, note that nnsclo,dbl_nnsclo,istep=  0 0  4
 newocc : new Fermi energy is       0.110860 , with nelect=      9.000000
  Number of bissection calls =  49
 newocc : computed new occ. numbers for occopt=    4 , spin-unpolarized case.
 2.000 2.000 2.000 2.142 0.005 0.000 0.000
 2.000 2.000 2.000 2.030 2.133 0.046 0.004
 2.000 2.000 2.000 1.256 1.247 0.005 0.000
 2.000 2.000 2.000 2.000 1.476 0.309 0.002
 2.000 2.000 2.017 2.122 1.117 0.005 0.004
 2.000 2.000 2.140 2.136 0.021 0.000 0.005
mkrho: echo density (plane-wave part only)
 Total charge density [el/Bohr^3]
,     Maximum=    3.4953E-02  at reduced coord.    0.0000    0.6667    0.3778
,     Minimum=    1.8670E-04  at reduced coord.    0.5000    0.5000    0.6889
,  Integrated=    9.0000E+00
 Total charge density [el/Bohr^3]
,     Maximum=    3.4953E-02  at reduced coord.    0.0000    0.6667    0.3778
,     Minimum=    1.8670E-04  at reduced coord.    0.5000    0.5000    0.6889
,  Integrated=    9.0000E+00
 ETOT  4  -6.2539516662764    -1.967E-05 2.435E-06 2.488E-03 1.604E-04 4.335E-03
 scprqt: <Vxc>= -2.6845360E-01 hartree

 Pulay update with  3 previous iterations:
 mixing of old trial potential : alpha(m:m-4)=   1.02     -0.158E-02 -0.167E-01  0.161E-02

 ITER STEP NUMBER     5
 vtorho : nnsclo_now=  1, note that nnsclo,dbl_nnsclo,istep=  0 0  5
 newocc : new Fermi energy is       0.110696 , with nelect=      9.000000
  Number of bissection calls =  49
 newocc : computed new occ. numbers for occopt=    4 , spin-unpolarized case.
 2.000 2.000 2.000 2.142 0.005 0.000 0.000
 2.000 2.000 2.000 2.030 2.133 0.046 0.004
 2.000 2.000 2.000 1.255 1.249 0.005 0.000
 2.000 2.000 2.000 2.000 1.475 0.309 0.002
 2.000 2.000 2.017 2.122 1.117 0.005 0.004
 2.000 2.000 2.140 2.136 0.021 0.000 0.005
mkrho: echo density (plane-wave part only)
 Total charge density [el/Bohr^3]
,     Maximum=    3.4955E-02  at reduced coord.    0.0000    0.6667    0.3778
,     Minimum=    1.8592E-04  at reduced coord.    0.5000    0.5000    0.6889
,  Integrated=    9.0000E+00
 Total charge density [el/Bohr^3]
,     Maximum=    3.4955E-02  at reduced coord.    0.0000    0.6667    0.3778
,     Minimum=    1.8592E-04  at reduced coord.    0.5000    0.5000    0.6889
,  Integrated=    9.0000E+00
 ETOT  5  -6.2539524347355    -7.685E-07 1.493E-07 7.945E-07 2.466E-05 4.310E-03
 scprqt: <Vxc>= -2.6842413E-01 hartree

 dielmt : 15 largest eigenvalues of the hermitian RPA dielectric matrix
  1-5  : 9.03026E+00 5.72842E+00 2.61098E+00 2.22794E+00 1.80412E+00
  6-10 : 1.80412E+00 1.79666E+00 1.76648E+00 1.74791E+00 1.74791E+00
  11-15: 1.74306E+00 1.68098E+00 1.64245E+00 1.62350E+00 1.60761E+00

 dielmt : 5 smallest eigenvalues of the hermitian RPA dielectric matrix
  1-5  : 1.00000E+00 1.01100E+00 1.01170E+00 1.01170E+00 1.01197E+00

 Pulay update with  4 previous iterations:
 mixing of old trial potential : alpha(m:m-4)=   1.09     -0.810E-01 -0.698E-02  0.170E-02  0.384E-04

 ITER STEP NUMBER     6
 vtorho : nnsclo_now=  1, note that nnsclo,dbl_nnsclo,istep=  0 0  6
 newocc : new Fermi energy is       0.110723 , with nelect=      9.000000
  Number of bissection calls =  49
 newocc : computed new occ. numbers for occopt=    4 , spin-unpolarized case.
 2.000 2.000 2.000 2.142 0.005 0.000 0.000
 2.000 2.000 2.000 2.030 2.133 0.046 0.004
 2.000 2.000 2.000 1.255 1.249 0.005 0.000
 2.000 2.000 2.000 2.000 1.475 0.309 0.002
 2.000 2.000 2.017 2.122 1.117 0.005 0.004
 2.000 2.000 2.140 2.136 0.021 0.000 0.005
mkrho: echo density (plane-wave part only)
 Total charge density [el/Bohr^3]
,     Maximum=    3.4954E-02  at reduced coord.    0.0000    0.6667    0.3778
,     Minimum=    1.8590E-04  at reduced coord.    0.5000    0.5000    0.6889
,  Integrated=    9.0000E+00
 Total charge density [el/Bohr^3]
,     Maximum=    3.4954E-02  at reduced coord.    0.0000    0.6667    0.3778
,     Minimum=    1.8590E-04  at reduced coord.    0.5000    0.5000    0.6889
,  Integrated=    9.0000E+00
 ETOT  6  -6.2539524363100    -1.574E-09 2.288E-08 7.104E-08 9.835E-07 4.309E-03
 scprqt: <Vxc>= -2.6842365E-01 hartree

 At SCF step    6, forces are converged : 
  for the second time, max diff in force=  9.835E-07 < toldff=  5.000E-05
forstrnps: loop on k-points and spins done in parallel
  strhar : before mpi_comm, harstr=   7.7440827645715828E-005   7.7440827645715841E-005   4.5160979865770716E-002  -1.0112282988460763E-022  -1.0587911840678754E-022  -1.3545082530555828E-022
  strhar : after mpi_comm, harstr=   7.7440827645715828E-005   7.7440827645715841E-005   4.5160979865770716E-002  -1.0112282988460763E-022  -1.0587911840678754E-022  -1.3545082530555828E-022
  strhar : ehart,ucvol=   3.8118434206510448        528.52395982303051     

 Cartesian components of stress tensor (hartree/bohr^3)
  sigma(1 1)=  1.30985968E-04  sigma(3 2)=  0.00000000E+00
  sigma(2 2)=  1.30985968E-04  sigma(3 1)=  0.00000000E+00
  sigma(3 3)= -5.46820486E-05  sigma(2 1)=  0.00000000E+00

   1  3  3  1  1  3  3  1  1  3  3  1  1  3  3  1
   2  2  2  2  2  2  2  2  2  2  2  2  2  2  2  2
   3  1  1  3  3  1  1  3  3  1  1  3  3  1  1  3
 ioarr: writing density data
ioarr: file name is tbase4_xo_DS1_TIM1_DEN
ioarr: data written to disk file tbase4_xo_DS1_TIM1_DEN
 ihist @ write_md_hist           1
 mxhist @ write_md_hist          10

---OUTPUT-----------------------------------------------------------------------

 Cartesian coordinates (xcart) [bohr]
  0.00000000000000E+00  0.00000000000000E+00  0.00000000000000E+00
  0.00000000000000E+00  3.75279545000000E+00  3.75279545000000E+00
  0.00000000000000E+00  0.00000000000000E+00  7.50559090000000E+00
 Reduced coordinates (xred)
  0.00000000000000E+00  0.00000000000000E+00  0.00000000000000E+00
 -5.00000000000000E-01  5.00000000000000E-01  2.00000000000000E-01
  0.00000000000000E+00  0.00000000000000E+00  4.00000000000000E-01
 Cartesian forces (fcart) [Ha/bohr]; max,rms= 4.30948E-03 2.03151E-03 (free atoms)
 -0.00000000000000E+00 -0.00000000000000E+00 -4.30947544345790E-03
 -0.00000000000000E+00 -0.00000000000000E+00 -0.00000000000000E+00
 -0.00000000000000E+00 -0.00000000000000E+00  4.30947544345790E-03
 Reduced forces (fred)
  0.00000000000000E+00  0.00000000000000E+00  8.08628991804776E-02
  0.00000000000000E+00  0.00000000000000E+00  0.00000000000000E+00
  0.00000000000000E+00  0.00000000000000E+00 -8.08628991804776E-02
 Total energy (etotal) [Ha]= -6.25395243630998E+00
 fconv : at Broyd/MD step   1, gradients have not converged yet.
  max grad (force/stress) = 4.3095E-03 > tolmxf= 5.0000E-04 ha/bohr (free atoms)

 Geometry Optimization Precondition:           0
 Inverse hessian has been initialized.
 EXIT:           1           1

--- Iteration: ( 2/10) Internal Cycle: (1/1)
--------------------------------------------------------------------------------

 Cartesian coordinates (xcart) [bohr]
  0.00000000000000E+00  0.00000000000000E+00 -4.30947544345790E-03
  0.00000000000000E+00  3.75279545000000E+00  3.75279545000000E+00
  0.00000000000000E+00  0.00000000000000E+00  7.50990037544346E+00
 Reduced coordinates (xred)
  0.00000000000000E+00  0.00000000000000E+00 -2.29667483926303E-04
 -5.00000000000000E-01  5.00000000000000E-01  2.00000000000000E-01
  0.00000000000000E+00  0.00000000000000E+00  4.00229667483926E-01

---SELF-CONSISTENT-FIELD CONVERGENCE--------------------------------------------
 For input ecut=  2.545795E+00 best grid ngfft=       8       8      30
       max ecut=  2.803173E+00

 ==== FFT mesh ====
  FFT mesh divisions ........................     8    8   30
  Augmented FFT divisions ...................     9    9   30
  FFT algorithm .............................   100
  FFT cache size ............................    16

 m_distribfft.F90:216:WARNING
 The distribfft passed was already allocated for fine grid on the same size
 getmpw: optimal value of mpw=      85
   1  3  3  1  1  3  3  1  1  3  3  1  1  3  3  1
   2  2  2  2  2  2  2  2  2  2  2  2  2  2  2  2
   3  1  1  3  3  1  1  3  3  1  1  3  3  1  1  3

 getcut: wavevector=  0.0000  0.0000  0.0000  ngfft=  12  12  45
         ecut(hartree)=      6.000   => boxcut(ratio)=   2.05055

 ewald : nr and ng are    3 and   31

 ITER STEP NUMBER     1
 vtorho : nnsclo_now=  2, note that nnsclo,dbl_nnsclo,istep=  0 0  1
 newocc : new Fermi energy is       0.110754 , with nelect=      9.000000
  Number of bissection calls =  49
 newocc : computed new occ. numbers for occopt=    4 , spin-unpolarized case.
 2.000 2.000 2.000 2.142 0.005 0.000 0.000
 2.000 2.000 2.000 2.029 2.133 0.047 0.004
 2.000 2.000 2.000 1.262 1.237 0.005 0.000
 2.000 2.000 2.000 2.000 1.481 0.315 0.002
 2.000 2.000 2.017 2.123 1.116 0.005 0.004
 2.000 2.000 2.140 2.136 0.019 0.000 0.005
mkrho: echo density (plane-wave part only)
 Total charge density [el/Bohr^3]
,     Maximum=    3.4943E-02  at reduced coord.    0.0000    0.6667    0.3778
,     Minimum=    1.8654E-04  at reduced coord.    0.5000    0.5000    0.6889
,  Integrated=    9.0000E+00
 Total charge density [el/Bohr^3]
,     Maximum=    3.4943E-02  at reduced coord.    0.0000    0.6667    0.3778
,     Minimum=    1.8654E-04  at reduced coord.    0.5000    0.5000    0.6889
,  Integrated=    9.0000E+00
 ETOT  1  -6.2539882785393    -6.254E+00 2.161E-09 1.559E-03 1.053E-04 4.204E-03
 scprqt: <Vxc>= -2.6850172E-01 hartree

 dielmt : 15 largest eigenvalues of the hermitian RPA dielectric matrix
  1-5  : 9.02263E+00 5.72478E+00 2.61056E+00 2.22875E+00 1.80358E+00
  6-10 : 1.80358E+00 1.79650E+00 1.76623E+00 1.74749E+00 1.74749E+00
  11-15: 1.74352E+00 1.68028E+00 1.64269E+00 1.62324E+00 1.60762E+00

 dielmt : 5 smallest eigenvalues of the hermitian RPA dielectric matrix
  1-5  : 1.00000E+00 1.01104E+00 1.01174E+00 1.01174E+00 1.01202E+00

Simple mixing update:
  residual square of the potential :   1.0575053832620884E-004

 ITER STEP NUMBER     2
 vtorho : nnsclo_now=  2, note that nnsclo,dbl_nnsclo,istep=  0 0  2
 newocc : new Fermi energy is       0.110758 , with nelect=      9.000000
  Number of bissection calls =  49
 newocc : computed new occ. numbers for occopt=    4 , spin-unpolarized case.
 2.000 2.000 2.000 2.142 0.005 0.000 0.000
 2.000 2.000 2.000 2.029 2.133 0.047 0.004
 2.000 2.000 2.000 1.261 1.240 0.005 0.000
 2.000 2.000 2.000 2.000 1.480 0.314 0.002
 2.000 2.000 2.017 2.123 1.115 0.005 0.004
 2.000 2.000 2.140 2.136 0.020 0.000 0.005
mkrho: echo density (plane-wave part only)
 Total charge density [el/Bohr^3]
,     Maximum=    3.4936E-02  at reduced coord.    0.0000    0.6667    0.3778
,     Minimum=    1.8661E-04  at reduced coord.    0.5000    0.5000    0.6889
,  Integrated=    9.0000E+00
 Total charge density [el/Bohr^3]
,     Maximum=    3.4936E-02  at reduced coord.    0.0000    0.6667    0.3778
,     Minimum=    1.8661E-04  at reduced coord.    0.5000    0.5000    0.6889
,  Integrated=    9.0000E+00
 ETOT  2  -6.2539890820828    -8.035E-07 1.994E-11 5.424E-05 9.029E-06 4.195E-03
 scprqt: <Vxc>= -2.6849474E-01 hartree

 Pulay update with  1 previous iterations:
 mixing of old trial potential : alpha(m:m-4)=  0.958      0.420E-01

 ITER STEP NUMBER     3
 vtorho : nnsclo_now=  1, note that nnsclo,dbl_nnsclo,istep=  0 0  3
 newocc : new Fermi energy is       0.110776 , with nelect=      9.000000
  Number of bissection calls =  49
 newocc : computed new occ. numbers for occopt=    4 , spin-unpolarized case.
 2.000 2.000 2.000 2.142 0.005 0.000 0.000
 2.000 2.000 2.000 2.029 2.133 0.047 0.004
 2.000 2.000 2.000 1.261 1.239 0.005 0.000
 2.000 2.000 2.000 2.000 1.480 0.314 0.002
 2.000 2.000 2.017 2.123 1.115 0.005 0.004
 2.000 2.000 2.140 2.136 0.020 0.000 0.005
mkrho: echo density (plane-wave part only)
 Total charge density [el/Bohr^3]
,     Maximum=    3.4935E-02  at reduced coord.    0.0000    0.6667    0.3778
,     Minimum=    1.8670E-04  at reduced coord.    0.5000    0.5000    0.6889
,  Integrated=    9.0000E+00
 Total charge density [el/Bohr^3]
,     Maximum=    3.4935E-02  at reduced coord.    0.0000    0.6667    0.3778
,     Minimum=    1.8670E-04  at reduced coord.    0.5000    0.5000    0.6889
,  Integrated=    9.0000E+00
 ETOT  3  -6.2539890999073    -1.782E-08 2.181E-10 3.600E-07 3.717E-06 4.199E-03
 scprqt: <Vxc>= -2.6849857E-01 hartree

 At SCF step    3, forces are converged : 
  for the second time, max diff in force=  3.717E-06 < toldff=  5.000E-05
forstrnps: loop on k-points and spins done in parallel
  strhar : before mpi_comm, harstr=   7.7429337602057197E-005   7.7429337602057211E-005   4.5014598842142733E-002   2.0627816525541128E-023   0.0000000000000000       -1.9343618624552552E-021
  strhar : after mpi_comm, harstr=   7.7429337602057197E-005   7.7429337602057211E-005   4.5014598842142733E-002   2.0627816525541128E-023   0.0000000000000000       -1.9343618624552552E-021
  strhar : ehart,ucvol=   3.7995283256801859        528.52395982303051     

 Cartesian components of stress tensor (hartree/bohr^3)
  sigma(1 1)=  1.32118482E-04  sigma(3 2)=  0.00000000E+00
  sigma(2 2)=  1.32118482E-04  sigma(3 1)=  0.00000000E+00
  sigma(3 3)= -5.32832580E-05  sigma(2 1)=  0.00000000E+00

   1  3  3  1  1  3  3  1  1  3  3  1  1  3  3  1
   2  2  2  2  2  2  2  2  2  2  2  2  2  2  2  2
   3  1  1  3  3  1  1  3  3  1  1  3  3  1  1  3
 ioarr: writing density data
ioarr: file name is tbase4_xo_DS1_TIM2_DEN
ioarr: data written to disk file tbase4_xo_DS1_TIM2_DEN
 ihist @ write_md_hist           2
 mxhist @ write_md_hist          10
 OPEN NETCDF FILE

---OUTPUT-----------------------------------------------------------------------

 Cartesian coordinates (xcart) [bohr]
  0.00000000000000E+00  0.00000000000000E+00 -4.30947544345790E-03
  0.00000000000000E+00  3.75279545000000E+00  3.75279545000000E+00
  0.00000000000000E+00  0.00000000000000E+00  7.50990037544346E+00
 Reduced coordinates (xred)
  0.00000000000000E+00  0.00000000000000E+00 -2.29667483926303E-04
 -5.00000000000000E-01  5.00000000000000E-01  2.00000000000000E-01
  0.00000000000000E+00  0.00000000000000E+00  4.00229667483926E-01
 Cartesian forces (fcart) [Ha/bohr]; max,rms= 4.19886E-03 1.97936E-03 (free atoms)
 -0.00000000000000E+00 -0.00000000000000E+00 -4.19885513791864E-03
 -0.00000000000000E+00 -0.00000000000000E+00 -0.00000000000000E+00
 -0.00000000000000E+00 -0.00000000000000E+00  4.19885513791864E-03
 Reduced forces (fred)
  0.00000000000000E+00  0.00000000000000E+00  7.87872222839510E-02
  0.00000000000000E+00  0.00000000000000E+00  0.00000000000000E+00
  0.00000000000000E+00  0.00000000000000E+00 -7.87872222839510E-02
 Total energy (etotal) [Ha]= -6.25398909990728E+00

 Difference of energy with previous step (new-old):
           Absolute (Ha)=-3.66636E-05
           Relative     =-5.86245E-06
 fconv : at Broyd/MD step   2, gradients have not converged yet.
  max grad (force/stress) = 4.1989E-03 > tolmxf= 5.0000E-04 ha/bohr (free atoms)

 Geometry Optimization Precondition:           0
 EXIT:           1           1

--- Iteration: ( 3/10) Internal Cycle: (1/1)
--------------------------------------------------------------------------------

 Cartesian coordinates (xcart) [bohr]
  0.00000000000000E+00  0.00000000000000E+00 -1.67885800958817E-01
  0.00000000000000E+00  3.75279545000000E+00  3.75279545000000E+00
  0.00000000000000E+00  0.00000000000000E+00  7.67347670095880E+00
 Reduced coordinates (xred)
  0.00000000000000E+00  0.00000000000000E+00 -8.94723963486030E-03
 -5.00000000000000E-01  5.00000000000000E-01  2.00000000000000E-01
  0.00000000000000E+00  0.00000000000000E+00  4.08947239634859E-01

---SELF-CONSISTENT-FIELD CONVERGENCE--------------------------------------------
 For input ecut=  2.545795E+00 best grid ngfft=       8       8      30
       max ecut=  2.803173E+00

 ==== FFT mesh ====
  FFT mesh divisions ........................     8    8   30
  Augmented FFT divisions ...................     9    9   30
  FFT algorithm .............................   100
  FFT cache size ............................    16

 m_distribfft.F90:216:WARNING
 The distribfft passed was already allocated for fine grid on the same size
 getmpw: optimal value of mpw=      85
   1  3  3  1  1  3  3  1  1  3  3  1  1  3  3  1
   2  2  2  2  2  2  2  2  2  2  2  2  2  2  2  2
   3  1  1  3  3  1  1  3  3  1  1  3  3  1  1  3

 getcut: wavevector=  0.0000  0.0000  0.0000  ngfft=  12  12  45
         ecut(hartree)=      6.000   => boxcut(ratio)=   2.05055

 ewald : nr and ng are    3 and   31

 ITER STEP NUMBER     1
 vtorho : nnsclo_now=  2, note that nnsclo,dbl_nnsclo,istep=  0 0  1
 newocc : new Fermi energy is       0.112468 , with nelect=      9.000000
  Number of bissection calls =  49
 newocc : computed new occ. numbers for occopt=    4 , spin-unpolarized case.
 2.000 2.000 2.000 2.132 0.003 0.000 0.000
 2.000 2.000 2.001 2.016 2.125 0.105 0.005
 2.000 2.000 2.000 1.503 0.797 0.005 0.001
 2.000 2.000 2.000 2.000 1.700 0.585 0.003
 2.000 2.000 2.039 2.142 1.032 0.005 0.002
 2.000 2.001 2.133 2.132 0.000 0.002 0.003
mkrho: echo density (plane-wave part only)
 Total charge density [el/Bohr^3]
,     Maximum=    3.4433E-02  at reduced coord.    0.0000    0.6667    0.4000
,     Minimum=    2.1661E-04  at reduced coord.    0.5000    0.5000    0.6889
,  Integrated=    9.0000E+00
 Total charge density [el/Bohr^3]
,     Maximum=    3.4433E-02  at reduced coord.    0.0000    0.6667    0.4000
,     Minimum=    2.1661E-04  at reduced coord.    0.5000    0.5000    0.6889
,  Integrated=    9.0000E+00
 ETOT  1  -6.2541339148217    -6.254E+00 6.330E-07 1.138E+00 4.158E-03 4.093E-05
 scprqt: <Vxc>= -2.7134343E-01 hartree

 dielmt : 15 largest eigenvalues of the hermitian RPA dielectric matrix
  1-5  : 8.75865E+00 5.55367E+00 2.60330E+00 2.26218E+00 1.79460E+00
  6-10 : 1.78885E+00 1.78885E+00 1.76104E+00 1.75951E+00 1.73352E+00
  11-15: 1.73352E+00 1.66356E+00 1.65144E+00 1.61470E+00 1.61332E+00

 dielmt : 5 smallest eigenvalues of the hermitian RPA dielectric matrix
  1-5  : 1.00000E+00 1.01293E+00 1.01381E+00 1.01381E+00 1.01415E+00

Simple mixing update:
  residual square of the potential :   9.2290698116213377E-002

 ITER STEP NUMBER     2
 vtorho : nnsclo_now=  2, note that nnsclo,dbl_nnsclo,istep=  0 0  2
 newocc : new Fermi energy is       0.112390 , with nelect=      9.000000
  Number of bissection calls =  49
 newocc : computed new occ. numbers for occopt=    4 , spin-unpolarized case.
 2.000 2.000 2.000 2.134 0.003 0.000 0.000
 2.000 2.000 2.001 2.017 2.122 0.099 0.005
 2.000 2.000 2.000 1.483 0.875 0.005 0.001
 2.000 2.000 2.000 2.000 1.671 0.564 0.003
 2.000 2.000 2.034 2.142 1.010 0.005 0.003
 2.000 2.001 2.131 2.130 0.001 0.001 0.003
mkrho: echo density (plane-wave part only)
 Total charge density [el/Bohr^3]
,     Maximum=    3.4174E-02  at reduced coord.    0.0000    0.6667    0.4000
,     Minimum=    2.1889E-04  at reduced coord.    0.5000    0.5000    0.6889
,  Integrated=    9.0000E+00
 Total charge density [el/Bohr^3]
,     Maximum=    3.4174E-02  at reduced coord.    0.0000    0.6667    0.4000
,     Minimum=    2.1889E-04  at reduced coord.    0.5000    0.5000    0.6889
,  Integrated=    9.0000E+00
 ETOT  2  -6.2546788971305    -5.450E-04 6.778E-08 5.876E-02 9.406E-05 1.350E-04
 scprqt: <Vxc>= -2.7116612E-01 hartree

 Pulay update with  1 previous iterations:
 mixing of old trial potential : alpha(m:m-4)=  0.949      0.508E-01

 ITER STEP NUMBER     3
 vtorho : nnsclo_now=  1, note that nnsclo,dbl_nnsclo,istep=  0 0  3
 newocc : new Fermi energy is       0.112900 , with nelect=      9.000000
  Number of bissection calls =  49
 newocc : computed new occ. numbers for occopt=    4 , spin-unpolarized case.
 2.000 2.000 2.000 2.133 0.003 0.000 0.000
 2.000 2.000 2.001 2.017 2.122 0.101 0.005
 2.000 2.000 2.000 1.491 0.861 0.005 0.001
 2.000 2.000 2.000 2.000 1.676 0.567 0.003
 2.000 2.000 2.035 2.142 1.010 0.005 0.003
 2.000 2.001 2.131 2.130 0.001 0.002 0.003
mkrho: echo density (plane-wave part only)
 Total charge density [el/Bohr^3]
,     Maximum=    3.4173E-02  at reduced coord.    0.0000    0.6667    0.4000
,     Minimum=    2.2207E-04  at reduced coord.    0.5000    0.5000    0.6889
,  Integrated=    9.0000E+00
 Total charge density [el/Bohr^3]
,     Maximum=    3.4173E-02  at reduced coord.    0.0000    0.6667    0.4000
,     Minimum=    2.2207E-04  at reduced coord.    0.5000    0.5000    0.6889
,  Integrated=    9.0000E+00
 ETOT  3  -6.2546986911843    -1.979E-05 2.474E-07 7.713E-04 8.344E-05 2.184E-04
 scprqt: <Vxc>= -2.7127575E-01 hartree

 Pulay update with  2 previous iterations:
 mixing of old trial potential : alpha(m:m-4)=  0.945      0.620E-01 -0.738E-02

 ITER STEP NUMBER     4
 vtorho : nnsclo_now=  1, note that nnsclo,dbl_nnsclo,istep=  0 0  4
 newocc : new Fermi energy is       0.112773 , with nelect=      9.000000
  Number of bissection calls =  49
 newocc : computed new occ. numbers for occopt=    4 , spin-unpolarized case.
 2.000 2.000 2.000 2.133 0.003 0.000 0.000
 2.000 2.000 2.001 2.017 2.122 0.101 0.005
 2.000 2.000 2.000 1.491 0.863 0.005 0.001
 2.000 2.000 2.000 2.000 1.675 0.566 0.003
 2.000 2.000 2.035 2.142 1.010 0.005 0.003
 2.000 2.001 2.131 2.130 0.001 0.002 0.003
mkrho: echo density (plane-wave part only)
 Total charge density [el/Bohr^3]
,     Maximum=    3.4166E-02  at reduced coord.    0.0000    0.6667    0.4000
,     Minimum=    2.2197E-04  at reduced coord.    0.5000    0.5000    0.6889
,  Integrated=    9.0000E+00
 Total charge density [el/Bohr^3]
,     Maximum=    3.4166E-02  at reduced coord.    0.0000    0.6667    0.4000
,     Minimum=    2.2197E-04  at reduced coord.    0.5000    0.5000    0.6889
,  Integrated=    9.0000E+00
 ETOT  4  -6.2546990337000    -3.425E-07 2.201E-09 1.196E-06 1.257E-05 2.059E-04
 scprqt: <Vxc>= -2.7126927E-01 hartree

 Pulay update with  3 previous iterations:
 mixing of old trial potential : alpha(m:m-4)=   1.17     -0.158     -0.141E-01  0.118E-02

 ITER STEP NUMBER     5
 vtorho : nnsclo_now=  1, note that nnsclo,dbl_nnsclo,istep=  0 0  5
 newocc : new Fermi energy is       0.112781 , with nelect=      9.000000
  Number of bissection calls =  49
 newocc : computed new occ. numbers for occopt=    4 , spin-unpolarized case.
 2.000 2.000 2.000 2.133 0.003 0.000 0.000
 2.000 2.000 2.001 2.017 2.122 0.101 0.005
 2.000 2.000 2.000 1.491 0.863 0.005 0.001
 2.000 2.000 2.000 2.000 1.675 0.566 0.003
 2.000 2.000 2.035 2.142 1.010 0.005 0.003
 2.000 2.001 2.131 2.130 0.001 0.002 0.003
mkrho: echo density (plane-wave part only)
 Total charge density [el/Bohr^3]
,     Maximum=    3.4165E-02  at reduced coord.    0.0000    0.6667    0.4000
,     Minimum=    2.2199E-04  at reduced coord.    0.5000    0.5000    0.6889
,  Integrated=    9.0000E+00
 Total charge density [el/Bohr^3]
,     Maximum=    3.4165E-02  at reduced coord.    0.0000    0.6667    0.4000
,     Minimum=    2.2199E-04  at reduced coord.    0.5000    0.5000    0.6889
,  Integrated=    9.0000E+00
 ETOT  5  -6.2546990353495    -1.650E-09 1.372E-10 2.286E-08 1.471E-06 2.044E-04
 scprqt: <Vxc>= -2.7127006E-01 hartree

 At SCF step    5, forces are converged : 
  for the second time, max diff in force=  1.471E-06 < toldff=  5.000E-05
forstrnps: loop on k-points and spins done in parallel
  strhar : before mpi_comm, harstr=   7.7280920704418324E-005   7.7280920704418351E-005   3.9659649140511219E-002   7.7031194544000702E-024  -1.0587911840678754E-022  -5.3187713387159679E-022
  strhar : after mpi_comm, harstr=   7.7280920704418324E-005   7.7280920704418351E-005   3.9659649140511219E-002   7.7031194544000702E-024  -1.0587911840678754E-022  -5.3187713387159679E-022
  strhar : ehart,ucvol=   3.3490599778028369        528.52395982303051     

 Cartesian components of stress tensor (hartree/bohr^3)
  sigma(1 1)=  1.70748476E-04  sigma(3 2)=  0.00000000E+00
  sigma(2 2)=  1.70748476E-04  sigma(3 1)=  0.00000000E+00
  sigma(3 3)= -1.01173595E-06  sigma(2 1)=  0.00000000E+00

   1  3  3  1  1  3  3  1  1  3  3  1  1  3  3  1
   2  2  2  2  2  2  2  2  2  2  2  2  2  2  2  2
   3  1  1  3  3  1  1  3  3  1  1  3  3  1  1  3
 ioarr: writing density data
ioarr: file name is tbase4_xo_DS1_TIM3_DEN
ioarr: data written to disk file tbase4_xo_DS1_TIM3_DEN
 ihist @ write_md_hist           3
 mxhist @ write_md_hist          10
 OPEN NETCDF FILE

---OUTPUT-----------------------------------------------------------------------

 Cartesian coordinates (xcart) [bohr]
  0.00000000000000E+00  0.00000000000000E+00 -1.67885800958817E-01
  0.00000000000000E+00  3.75279545000000E+00  3.75279545000000E+00
  0.00000000000000E+00  0.00000000000000E+00  7.67347670095880E+00
 Reduced coordinates (xred)
  0.00000000000000E+00  0.00000000000000E+00 -8.94723963486030E-03
 -5.00000000000000E-01  5.00000000000000E-01  2.00000000000000E-01
  0.00000000000000E+00  0.00000000000000E+00  4.08947239634859E-01
 Cartesian forces (fcart) [Ha/bohr]; max,rms= 2.04383E-04 9.63468E-05 (free atoms)
 -0.00000000000000E+00 -0.00000000000000E+00 -2.04382507764582E-04
 -0.00000000000000E+00 -0.00000000000000E+00 -0.00000000000000E+00
 -0.00000000000000E+00 -0.00000000000000E+00  2.04382507764582E-04
 Reduced forces (fred)
  0.00000000000000E+00  0.00000000000000E+00  3.83502872599257E-03
  0.00000000000000E+00  0.00000000000000E+00  0.00000000000000E+00
  0.00000000000000E+00  0.00000000000000E+00 -3.83502872599257E-03
 Total energy (etotal) [Ha]= -6.25469903534955E+00

 Difference of energy with previous step (new-old):
           Absolute (Ha)=-7.09935E-04
           Relative     =-1.13511E-04

 At Broyd/MD step   3, gradients are converged : 
  max grad (force/stress) = 2.0438E-04 < tolmxf= 5.0000E-04 ha/bohr (free atoms)

 Geometry Optimization Precondition:           0
================================================================================

 ----iterations are completed or convergence reached----


 outwf: write wavefunction to file tbase4_xo_DS1_WFK, with accesswff -1
 leave_test : synchronization done...
 outwf with iomode: -1, cpu:     0.00, wall:     0.01

 Cartesian components of stress tensor (hartree/bohr^3)
  sigma(1 1)=  1.70748476E-04  sigma(3 2)=  0.00000000E+00
  sigma(2 2)=  1.70748476E-04  sigma(3 1)=  0.00000000E+00
  sigma(3 3)= -1.01173595E-06  sigma(2 1)=  0.00000000E+00

-Cartesian components of stress tensor (GPa)         [Pressure= -3.3391E+00 GPa]
- sigma(1 1)=  5.02359277E+00  sigma(3 2)=  0.00000000E+00
- sigma(2 2)=  5.02359277E+00  sigma(3 1)=  0.00000000E+00
- sigma(3 3)= -2.97662944E-02  sigma(2 1)=  0.00000000E+00

================================================================================
== DATASET  2 ==================================================================
-   nproc =    1

 setmqgrid : COMMENT -
  The number of points "mqgrid" in reciprocal space used for the
  description of the pseudopotentials has been set automatically
  by abinit to :     3001.

 getdim_nloc : deduce lmnmax  =   9, lnmax  =   3,
                      lmnmaxso=   9, lnmaxso=   3.
 Exchange-correlation functional for the present dataset will be:
  LDA: new Teter (4/93) with spin-polarized option - ixc=1
 Citation for XC functional:
  S. Goedecker, M. Teter, J. Huetter, PRB 54, 1703 (1996)

 Unit cell volume ucvol=  6.3422875E+02 bohr^3
 Angles (23,13,12)=  9.00000000E+01  9.00000000E+01  9.00000000E+01 degrees

 getcut: wavevector=  0.0000  0.0000  0.0000  ngfft=  12  12  50
         ecut(hartree)=      6.000   => boxcut(ratio)=   2.01383
   6.54267545E+01                                ecore*ucvol(ha*bohr**3)
   1  4  4  1  1  4  4  1  1  4  4  1  1  4  4  1
   2  3  3  2  2  3  3  2  2  3  3  2  2  3  3  2
   3  2  2  3  3  2  2  3  3  2  2  3  3  2  2  3
   4  1  1  4  4  1  1  4  4  1  1  4  4  1  1  4
 wfconv:     8 bands initialized randomly with npw=   432, for ikpt=     1
 wfconv:     8 bands initialized randomly with npw=   442, for ikpt=     2
 wfconv:     8 bands initialized randomly with npw=   438, for ikpt=     3
 wfconv:     8 bands initialized randomly with npw=   452, for ikpt=     4
 wfconv:     8 bands initialized randomly with npw=   450, for ikpt=     5
 wfconv:     8 bands initialized randomly with npw=   452, for ikpt=     6

_setup2: Arith. and geom. avg. npw (full set) are     444.250     444.191
 initro : for itypat=  1, take decay length=      1.2500,
 initro : indeed, coreel=     10.0000, nval=  3 and densty=  0.0000E+00.

================================================================================
 Could no open tbase4_xo_DS2_HIST, starting from scratch

=== [ionmov= 2] Broyden-Fletcher-Goldfard-Shanno method (forces)            
================================================================================

--- Iteration: ( 1/10) Internal Cycle: (1/1)
--------------------------------------------------------------------------------

 Cartesian coordinates (xcart) [bohr]
  0.00000000000000E+00  0.00000000000000E+00  0.00000000000000E+00
  0.00000000000000E+00  3.75279545000000E+00  3.75279545000000E+00
  0.00000000000000E+00  0.00000000000000E+00  7.50559090000000E+00
  0.00000000000000E+00  3.75279545000000E+00  1.12583863500000E+01
 Reduced coordinates (xred)
  0.00000000000000E+00  0.00000000000000E+00  0.00000000000000E+00
 -5.00000000000000E-01  5.00000000000000E-01  1.66666666666667E-01
  0.00000000000000E+00  0.00000000000000E+00  3.33333333333333E-01
 -5.00000000000000E-01  5.00000000000000E-01  5.00000000000000E-01

---SELF-CONSISTENT-FIELD CONVERGENCE--------------------------------------------
 For input ecut=  2.545795E+00 best grid ngfft=       8       8      36
       max ecut=  2.803173E+00

 ==== FFT mesh ====
  FFT mesh divisions ........................     8    8   36
  Augmented FFT divisions ...................     9    9   36
  FFT algorithm .............................   100
  FFT cache size ............................    16
 getmpw: optimal value of mpw=     103
   1  4  4  1  1  4  4  1  1  4  4  1  1  4  4  1
   2  3  3  2  2  3  3  2  2  3  3  2  2  3  3  2
   3  2  2  3  3  2  2  3  3  2  2  3  3  2  2  3
   4  1  1  4  4  1  1  4  4  1  1  4  4  1  1  4

 getcut: wavevector=  0.0000  0.0000  0.0000  ngfft=  12  12  50
         ecut(hartree)=      6.000   => boxcut(ratio)=   2.01383

 ewald : nr and ng are    4 and   35

 ITER STEP NUMBER     1
 vtorho : nnsclo_now=  2, note that nnsclo,dbl_nnsclo,istep=  0 0  1
 newocc : new Fermi energy is       0.129158 , with nelect=     12.000000
  Number of bissection calls =  50
 newocc : computed new occ. numbers for occopt=    4 , spin-unpolarized case.
 2.000 2.000 2.000 2.000 2.129 0.005 0.001 0.000
 2.000 2.000 2.000 2.000 2.004 2.123 1.558 0.134
 2.000 2.000 2.000 2.006 2.110 1.523 0.324 0.001
 2.000 2.000 2.000 2.000 2.007 2.007 0.159 0.151
 2.000 2.000 2.000 2.000 2.091 1.633 0.175 0.004
 2.000 2.000 2.003 2.003 1.681 1.596 0.406 0.297
mkrho: echo density (plane-wave part only)
 Total charge density [el/Bohr^3]
,     Maximum=    3.5793E-02  at reduced coord.    0.0000    0.6667    0.3000
,     Minimum=    2.1529E-04  at reduced coord.    0.0000    0.0000    0.7400
,  Integrated=    1.2000E+01
 Total charge density [el/Bohr^3]
,     Maximum=    3.5793E-02  at reduced coord.    0.0000    0.6667    0.3000
,     Minimum=    2.1529E-04  at reduced coord.    0.0000    0.0000    0.7400
,  Integrated=    1.2000E+01
 ETOT  1  -8.2571154630704    -8.257E+00 4.006E-03 3.485E+02 7.135E-03 7.135E-03
 scprqt: <Vxc>= -2.7800944E-01 hartree

 dielmt : 15 largest eigenvalues of the hermitian RPA dielectric matrix
  1-5  : 1.32191E+01 7.96711E+00 3.43399E+00 2.82299E+00 2.11277E+00
  6-10 : 1.97074E+00 1.93999E+00 1.93999E+00 1.93700E+00 1.84853E+00
  11-15: 1.84307E+00 1.81166E+00 1.81166E+00 1.79576E+00 1.77354E+00

 dielmt : 5 smallest eigenvalues of the hermitian RPA dielectric matrix
  1-5  : 1.00000E+00 1.01061E+00 1.01085E+00 1.01085E+00 1.01094E+00

Simple mixing update:
  residual square of the potential :   11.512443849286083

 ITER STEP NUMBER     2
 vtorho : nnsclo_now=  2, note that nnsclo,dbl_nnsclo,istep=  0 0  2
 newocc : new Fermi energy is       0.151142 , with nelect=     12.000000
  Number of bissection calls =  49
 newocc : computed new occ. numbers for occopt=    4 , spin-unpolarized case.
 2.000 2.000 2.000 2.000 2.066 0.005 0.001 0.000
 2.000 2.000 2.000 2.000 2.013 2.082 1.373 0.526
 2.000 2.000 2.000 2.002 1.991 1.723 0.098 0.001
 2.000 2.000 2.000 2.000 2.010 2.010 0.355 0.355
 2.000 2.000 2.000 2.005 2.135 1.901 0.117 0.000
 2.000 2.000 2.011 2.011 1.546 1.546 0.071 0.071
mkrho: echo density (plane-wave part only)
 Total charge density [el/Bohr^3]
,     Maximum=    3.4930E-02  at reduced coord.    0.5000    0.8333    0.4800
,     Minimum=    5.1755E-04  at reduced coord.    0.0000    0.0000    0.7400
,  Integrated=    1.2000E+01
 Total charge density [el/Bohr^3]
,     Maximum=    3.4930E-02  at reduced coord.    0.5000    0.8333    0.4800
,     Minimum=    5.1755E-04  at reduced coord.    0.0000    0.0000    0.7400
,  Integrated=    1.2000E+01
 ETOT  2  -8.3482157446056    -9.110E-02 9.173E-05 2.420E+01 1.384E-02 6.702E-03
 scprqt: <Vxc>= -2.8500483E-01 hartree

 Pulay update with  1 previous iterations:
 mixing of old trial potential : alpha(m:m-4)=  0.790      0.210

 ITER STEP NUMBER     3
 vtorho : nnsclo_now=  1, note that nnsclo,dbl_nnsclo,istep=  0 0  3
 newocc : new Fermi energy is       0.140238 , with nelect=     12.000000
  Number of bissection calls =  49
 newocc : computed new occ. numbers for occopt=    4 , spin-unpolarized case.
 2.000 2.000 2.000 2.000 2.079 0.005 0.002 0.000
 2.000 2.000 2.000 2.000 2.012 2.087 1.375 0.429
 2.000 2.000 2.000 2.003 1.923 1.843 0.111 0.001
 2.000 2.000 2.000 2.000 2.010 2.010 0.324 0.324
 2.000 2.000 2.000 2.003 2.133 1.868 0.118 0.000
 2.000 2.000 2.010 2.010 1.541 1.541 0.117 0.117
mkrho: echo density (plane-wave part only)
 Total charge density [el/Bohr^3]
,     Maximum=    3.4682E-02  at reduced coord.    0.5000    0.8333    0.4800
,     Minimum=    4.2091E-04  at reduced coord.    0.0000    0.0000    0.7400
,  Integrated=    1.2000E+01
 Total charge density [el/Bohr^3]
,     Maximum=    3.4682E-02  at reduced coord.    0.5000    0.8333    0.4800
,     Minimum=    4.2091E-04  at reduced coord.    0.0000    0.0000    0.7400
,  Integrated=    1.2000E+01
 ETOT  3  -8.3546409550350    -6.425E-03 6.249E-05 1.125E-01 1.576E-03 6.181E-03
 scprqt: <Vxc>= -2.8350755E-01 hartree

 Pulay update with  2 previous iterations:
 mixing of old trial potential : alpha(m:m-4)=   1.11     -0.736E-01 -0.366E-01

 ITER STEP NUMBER     4
 vtorho : nnsclo_now=  1, note that nnsclo,dbl_nnsclo,istep=  0 0  4
 newocc : new Fermi energy is       0.141884 , with nelect=     12.000000
  Number of bissection calls =  49
 newocc : computed new occ. numbers for occopt=    4 , spin-unpolarized case.
 2.000 2.000 2.000 2.000 2.078 0.005 0.002 0.000
 2.000 2.000 2.000 2.000 2.012 2.086 1.363 0.443
 2.000 2.000 2.000 2.003 1.933 1.836 0.107 0.001
 2.000 2.000 2.000 2.000 2.011 2.011 0.333 0.333
 2.000 2.000 2.000 2.003 2.133 1.878 0.114 0.000
 2.000 2.000 2.010 2.010 1.532 1.532 0.113 0.113
mkrho: echo density (plane-wave part only)
 Total charge density [el/Bohr^3]
,     Maximum=    3.4581E-02  at reduced coord.    0.5000    0.8333    0.4800
,     Minimum=    4.2399E-04  at reduced coord.    0.0000    0.0000    0.7400
,  Integrated=    1.2000E+01
 Total charge density [el/Bohr^3]
,     Maximum=    3.4581E-02  at reduced coord.    0.5000    0.8333    0.4800
,     Minimum=    4.2399E-04  at reduced coord.    0.0000    0.0000    0.7400
,  Integrated=    1.2000E+01
 ETOT  4  -8.3546859038954    -4.495E-05 2.588E-06 4.897E-03 2.005E-04 6.251E-03
 scprqt: <Vxc>= -2.8361519E-01 hartree

 Pulay update with  3 previous iterations:
 mixing of old trial potential : alpha(m:m-4)=   1.13     -0.118     -0.172E-01  0.278E-02

 ITER STEP NUMBER     5
 vtorho : nnsclo_now=  1, note that nnsclo,dbl_nnsclo,istep=  0 0  5
 newocc : new Fermi energy is       0.141692 , with nelect=     12.000000
  Number of bissection calls =  49
 newocc : computed new occ. numbers for occopt=    4 , spin-unpolarized case.
 2.000 2.000 2.000 2.000 2.078 0.005 0.002 0.000
 2.000 2.000 2.000 2.000 2.012 2.086 1.361 0.442
 2.000 2.000 2.000 2.003 1.933 1.837 0.107 0.001
 2.000 2.000 2.000 2.000 2.011 2.011 0.333 0.333
 2.000 2.000 2.000 2.003 2.133 1.878 0.113 0.000
 2.000 2.000 2.010 2.010 1.531 1.531 0.114 0.114
mkrho: echo density (plane-wave part only)
 Total charge density [el/Bohr^3]
,     Maximum=    3.4567E-02  at reduced coord.    0.5000    0.8333    0.4800
,     Minimum=    4.2204E-04  at reduced coord.    0.0000    0.0000    0.7400
,  Integrated=    1.2000E+01
 Total charge density [el/Bohr^3]
,     Maximum=    3.4567E-02  at reduced coord.    0.5000    0.8333    0.4800
,     Minimum=    4.2204E-04  at reduced coord.    0.0000    0.0000    0.7400
,  Integrated=    1.2000E+01
 ETOT  5  -8.3546873340992    -1.430E-06 4.098E-07 2.107E-06 1.755E-05 6.233E-03
 scprqt: <Vxc>= -2.8358949E-01 hartree

 dielmt : 15 largest eigenvalues of the hermitian RPA dielectric matrix
  1-5  : 1.35092E+01 8.53983E+00 3.48748E+00 2.84887E+00 2.18891E+00
  6-10 : 2.03104E+00 1.87461E+00 1.87461E+00 1.86499E+00 1.85082E+00
  11-15: 1.81690E+00 1.81690E+00 1.78759E+00 1.76897E+00 1.76897E+00

 dielmt : 5 smallest eigenvalues of the hermitian RPA dielectric matrix
  1-5  : 1.00000E+00 1.01732E+00 1.01776E+00 1.01776E+00 1.01819E+00

 Pulay update with  4 previous iterations:
 mixing of old trial potential : alpha(m:m-4)=   1.08     -0.873E-01  0.555E-02  0.881E-03 -0.154E-03

 ITER STEP NUMBER     6
 vtorho : nnsclo_now=  1, note that nnsclo,dbl_nnsclo,istep=  0 0  6
 newocc : new Fermi energy is       0.141715 , with nelect=     12.000000
  Number of bissection calls =  49
 newocc : computed new occ. numbers for occopt=    4 , spin-unpolarized case.
 2.000 2.000 2.000 2.000 2.078 0.005 0.002 0.000
 2.000 2.000 2.000 2.000 2.012 2.086 1.361 0.442
 2.000 2.000 2.000 2.003 1.933 1.837 0.107 0.001
 2.000 2.000 2.000 2.000 2.011 2.011 0.333 0.333
 2.000 2.000 2.000 2.003 2.133 1.878 0.113 0.000
 2.000 2.000 2.010 2.010 1.531 1.531 0.114 0.114
mkrho: echo density (plane-wave part only)
 Total charge density [el/Bohr^3]
,     Maximum=    3.4567E-02  at reduced coord.    0.5000    0.8333    0.4800
,     Minimum=    4.2198E-04  at reduced coord.    0.0000    0.0000    0.7400
,  Integrated=    1.2000E+01
 Total charge density [el/Bohr^3]
,     Maximum=    3.4567E-02  at reduced coord.    0.5000    0.8333    0.4800
,     Minimum=    4.2198E-04  at reduced coord.    0.0000    0.0000    0.7400
,  Integrated=    1.2000E+01
 ETOT  6  -8.3546873356953    -1.596E-09 2.816E-08 2.842E-07 1.003E-06 6.233E-03
 scprqt: <Vxc>= -2.8358874E-01 hartree

 At SCF step    6, forces are converged : 
  for the second time, max diff in force=  1.003E-06 < toldff=  5.000E-05
forstrnps: loop on k-points and spins done in parallel
  strhar : before mpi_comm, harstr=   7.6338757418915429E-005   7.6338757418915415E-005   5.7877497344958798E-002   2.0596797252570389E-022  -3.1763735522036263E-022  -2.0183206946293875E-022
[...]
  strhar : after mpi_comm, harstr=   7.8038760909206073E-005   7.8038760909206087E-005   5.9692378528293261E-002   3.9032585154845993E-023   1.5881867761018131E-022  -9.3305973095981522E-022
  strhar : ehart,ucvol=   7.0479984288633704        739.93354375224271     

 Cartesian components of stress tensor (hartree/bohr^3)
  sigma(1 1)=  1.46101205E-04  sigma(3 2)=  0.00000000E+00
  sigma(2 2)=  1.46101205E-04  sigma(3 1)=  0.00000000E+00
  sigma(3 3)=  1.74409788E-05  sigma(2 1)=  0.00000000E+00

   1  5  5  1  1  5  5  1  1  5  5  1  1  5  5  1
   2  4  4  2  2  4  4  2  2  4  4  2  2  4  4  2
   3  3  3  3  3  3  3  3  3  3  3  3  3  3  3  3
   4  2  2  4  4  2  2  4  4  2  2  4  4  2  2  4
   5  1  1  5  5  1  1  5  5  1  1  5  5  1  1  5
 ioarr: writing density data
ioarr: file name is tbase4_xo_DS3_TIM7_DEN
ioarr: data written to disk file tbase4_xo_DS3_TIM7_DEN
 ihist @ write_md_hist           7
 mxhist @ write_md_hist          10
 OPEN NETCDF FILE

---OUTPUT-----------------------------------------------------------------------

 Cartesian coordinates (xcart) [bohr]
  0.00000000000000E+00  0.00000000000000E+00 -1.95666741145862E-01
  0.00000000000000E+00  3.75279545000000E+00  3.63967470487099E+00
  0.00000000000000E+00  0.00000000000000E+00  7.50559090000000E+00
  0.00000000000000E+00  3.75279545000000E+00  1.13715070951290E+01
  0.00000000000000E+00  0.00000000000000E+00  1.52068485411459E+01
 Reduced coordinates (xred)
  0.00000000000000E+00  0.00000000000000E+00 -7.44841864276563E-03
 -5.00000000000000E-01  5.00000000000000E-01  1.38550991173069E-01
  0.00000000000000E+00  0.00000000000000E+00  2.85714285714286E-01
 -5.00000000000000E-01  5.00000000000000E-01  4.32877580255502E-01
  0.00000000000000E+00  0.00000000000000E+00  5.78876990071337E-01
 Cartesian forces (fcart) [Ha/bohr]; max,rms= 2.08979E-04 9.10329E-05 (free atoms)
 -0.00000000000000E+00 -0.00000000000000E+00  2.08979040495027E-04
 -0.00000000000000E+00 -0.00000000000000E+00 -1.35942021714555E-04
 -0.00000000000000E+00 -0.00000000000000E+00 -5.42101086242752E-21
 -0.00000000000000E+00 -0.00000000000000E+00  1.35942021714555E-04
 -0.00000000000000E+00 -0.00000000000000E+00 -2.08979040495027E-04
 Reduced forces (fred)
  0.00000000000000E+00  0.00000000000000E+00 -5.48978914620572E-03
  0.00000000000000E+00  0.00000000000000E+00  3.57113820387929E-03
  0.00000000000000E+00  0.00000000000000E+00  0.00000000000000E+00
  0.00000000000000E+00  0.00000000000000E+00 -3.57113820387929E-03
  0.00000000000000E+00  0.00000000000000E+00  5.48978914620572E-03
 Total energy (etotal) [Ha]= -1.04541625426947E+01

 Difference of energy with previous step (new-old):
           Absolute (Ha)=-5.65672E-06
           Relative     =-5.41097E-07

 At Broyd/MD step   7, gradients are converged : 
  max grad (force/stress) = 2.0898E-04 < tolmxf= 5.0000E-04 ha/bohr (free atoms)

 Geometry Optimization Precondition:           0
================================================================================

 ----iterations are completed or convergence reached----


 outwf: write wavefunction to file tbase4_xo_DS3_WFK, with accesswff -1
 leave_test : synchronization done...
 outwf with iomode: -1, cpu:     0.02, wall:     0.03

 Cartesian components of stress tensor (hartree/bohr^3)
  sigma(1 1)=  1.46101205E-04  sigma(3 2)=  0.00000000E+00
  sigma(2 2)=  1.46101205E-04  sigma(3 1)=  0.00000000E+00
  sigma(3 3)=  1.74409788E-05  sigma(2 1)=  0.00000000E+00

-Cartesian components of stress tensor (GPa)         [Pressure= -3.0367E+00 GPa]
- sigma(1 1)=  4.29844514E+00  sigma(3 2)=  0.00000000E+00
- sigma(2 2)=  4.29844514E+00  sigma(3 1)=  0.00000000E+00
- sigma(3 3)=  5.13131227E-01  sigma(2 1)=  0.00000000E+00

== END DATASET(S) ==============================================================
================================================================================
  
 -outvars: echo values of variables after computation  --------
 
 These variables are accessible in NetCDF format (tbase4_xo_OUT.nc)

            acell      7.5055909000E+00  7.5055909000E+00  7.5055909000E+00 Bohr
              amu      2.69815390E+01
      chksymbreak           0
             ecut      6.00000000E+00 Hartree
           etotal1    -6.2546990353E+00
           etotal2    -8.3565588273E+00
           etotal3    -1.0454162543E+01
            fcart1    -0.0000000000E+00 -0.0000000000E+00 -2.0438250776E-04
                      -0.0000000000E+00 -0.0000000000E+00 -0.0000000000E+00
                      -0.0000000000E+00 -0.0000000000E+00  2.0438250776E-04
            fcart2    -0.0000000000E+00 -0.0000000000E+00  1.3651524973E-04
                      -0.0000000000E+00 -0.0000000000E+00 -7.9308552648E-05
                      -0.0000000000E+00 -0.0000000000E+00  7.9308552648E-05
                      -0.0000000000E+00 -0.0000000000E+00 -1.3651524973E-04
            fcart3    -0.0000000000E+00 -0.0000000000E+00  2.0897904050E-04
                      -0.0000000000E+00 -0.0000000000E+00 -1.3594202171E-04
                      -0.0000000000E+00 -0.0000000000E+00 -5.4210108624E-21
                      -0.0000000000E+00 -0.0000000000E+00  1.3594202171E-04
                      -0.0000000000E+00 -0.0000000000E+00 -2.0897904050E-04
           ionmov           2
           iprcel          45
           jdtset        1    2    3
              kpt      0.00000000E+00  1.25000000E-01  0.00000000E+00
                       0.00000000E+00  3.75000000E-01  0.00000000E+00
                       1.25000000E-01  2.50000000E-01  0.00000000E+00
                       1.25000000E-01  5.00000000E-01  0.00000000E+00
                       2.50000000E-01  3.75000000E-01  0.00000000E+00
                       3.75000000E-01  5.00000000E-01  0.00000000E+00
         kptrlatt        4   -4    0      4    4    0      0    0    1
          kptrlen      3.00223636E+01
P           mkmem           6
            natom1          3
            natom2          4
            natom3          5
            nband1          7
            nband2          8
            nband3         11
           ndtset           3
            ngfft1         12      12      45
            ngfft2         12      12      50
            ngfft3         12      12      60
             nkpt           6
            nstep          10
             nsym          16
            ntime          10
           ntypat           1
              occ1     2.000000  2.000000  2.000000  2.133176  0.002909  0.000194
                       0.000000
                       2.000000  2.000000  2.000575  2.017124  2.122023  0.101426
                       0.005174
                       2.000000  2.000000  2.000123  1.490653  0.862857  0.004847
                       0.001182
                       2.000000  2.000000  2.000296  2.000468  1.674885  0.566058
                       0.002936
                       2.000000  2.000000  2.034894  2.141676  1.009535  0.004666
                       0.002527
                       2.000340  2.000605  2.130581  2.129681  0.000714  0.001600
                       0.003313
              occ2     2.000000  2.000000  2.000000  2.000001  2.041039  0.004533
                       0.000568  0.000260
                       2.000000  2.000000  2.000000  2.000129  2.025459  2.052215
                       1.345553  0.784912
                       2.000000  2.000000  2.000000  2.000922  2.092805  1.303643
                       0.030864  0.001512
                       2.000000  2.000000  2.000000  2.000000  2.011264  2.011264
                       0.606571  0.606571
                       2.000000  2.000000  2.000067  2.014414  2.139006  2.044544
                       0.103947  0.005686
                       2.000100  2.000100  2.021827  2.021827  1.486873  1.486873
                       0.008619  0.008619
              occ3     2.000000  2.000000  2.000000  2.000000  2.000009  2.060723
                       0.126790  0.002070  0.000123  0.000000  0.000000
                       2.000000  2.000000  2.000000  2.000003  2.000013  2.001385
                       2.083493  2.128299  0.825984  0.254164  0.002269
                       2.000000  2.000000  2.000000  2.000000  2.003155  2.020958
                       1.841247  0.602447  0.001978  0.005119  0.000064
                       2.000000  2.000000  2.000000  2.000000  2.000021  2.000029
                       2.051828  2.088759  0.622428  0.057929  0.005141
                       2.000000  2.000000  2.000000  2.001600  2.003160  2.055782
                       1.892119  1.615150  0.008980  0.001215  0.004852
                       2.000009  2.000011  2.000765  2.001461  2.099174  2.116102
                       0.687114  0.443077  0.130730  0.093883  0.000567
           occopt           4
        optforces           1
            rprim1     5.0000000000E-01 -5.0000000000E-01  0.0000000000E+00
                       5.0000000000E-01  5.0000000000E-01  0.0000000000E+00
                       0.0000000000E+00  0.0000000000E+00  2.5000000000E+00
            rprim2     5.0000000000E-01 -5.0000000000E-01  0.0000000000E+00
                       5.0000000000E-01  5.0000000000E-01  0.0000000000E+00
                       0.0000000000E+00  0.0000000000E+00  3.0000000000E+00
            rprim3     5.0000000000E-01 -5.0000000000E-01  0.0000000000E+00
                       5.0000000000E-01  5.0000000000E-01  0.0000000000E+00
                       0.0000000000E+00  0.0000000000E+00  3.5000000000E+00
           shiftk     -5.00000000E-01  5.00000000E-01  0.00000000E+00
          spgroup1        123
          spgroup2        129
          spgroup3        123
           strten1     1.7074847628E-04  1.7074847628E-04 -1.0117359546E-06
                       0.0000000000E+00  0.0000000000E+00  0.0000000000E+00
           strten2     1.8838416775E-04  1.8838416775E-04  6.4039404977E-05
                       0.0000000000E+00  0.0000000000E+00  0.0000000000E+00
           strten3     1.4610120524E-04  1.4610120524E-04  1.7440978829E-05
                       0.0000000000E+00  0.0000000000E+00  0.0000000000E+00
           symrel      1  0  0   0  1  0   0  0  1      -1  0  0   0 -1  0   0  0 -1
                      -1  0  0   0  1  0   0  0 -1       1  0  0   0 -1  0   0  0  1
                      -1  0  0   0 -1  0   0  0  1       1  0  0   0  1  0   0  0 -1
                       1  0  0   0 -1  0   0  0 -1      -1  0  0   0  1  0   0  0  1
                       0  1  0   1  0  0   0  0  1       0 -1  0  -1  0  0   0  0 -1
                       0 -1  0   1  0  0   0  0 -1       0  1  0  -1  0  0   0  0  1
                       0 -1  0  -1  0  0   0  0  1       0  1  0   1  0  0   0  0 -1
                       0  1  0  -1  0  0   0  0 -1       0 -1  0   1  0  0   0  0  1
            tnons1     0.0000000  0.0000000  0.0000000     0.0000000  0.0000000  0.4000000
                       0.0000000  0.0000000  0.4000000     0.0000000  0.0000000  0.0000000
                       0.0000000  0.0000000  0.0000000     0.0000000  0.0000000  0.4000000
                       0.0000000  0.0000000  0.4000000     0.0000000  0.0000000  0.0000000
                       0.0000000  0.0000000  0.0000000     0.0000000  0.0000000  0.4000000
                       0.0000000  0.0000000  0.4000000     0.0000000  0.0000000  0.0000000
                       0.0000000  0.0000000  0.0000000     0.0000000  0.0000000  0.4000000
                       0.0000000  0.0000000  0.4000000     0.0000000  0.0000000  0.0000000
            tnons2     0.0000000  0.0000000  0.0000000     0.5000000  0.5000000  0.5000000
                       0.5000000  0.5000000  0.5000000     0.0000000  0.0000000  0.0000000
                       0.0000000  0.0000000  0.0000000     0.5000000  0.5000000  0.5000000
                       0.5000000  0.5000000  0.5000000     0.0000000  0.0000000  0.0000000
                       0.0000000  0.0000000  0.0000000     0.5000000  0.5000000  0.5000000
                       0.5000000  0.5000000  0.5000000     0.0000000  0.0000000  0.0000000
                       0.0000000  0.0000000  0.0000000     0.5000000  0.5000000  0.5000000
                       0.5000000  0.5000000  0.5000000     0.0000000  0.0000000  0.0000000
            tnons3     0.0000000  0.0000000  0.0000000     0.0000000  0.0000000 -0.4285714
                       0.0000000  0.0000000 -0.4285714     0.0000000  0.0000000  0.0000000
                       0.0000000  0.0000000  0.0000000     0.0000000  0.0000000 -0.4285714
                       0.0000000  0.0000000 -0.4285714     0.0000000  0.0000000  0.0000000
                       0.0000000  0.0000000  0.0000000     0.0000000  0.0000000 -0.4285714
                       0.0000000  0.0000000 -0.4285714     0.0000000  0.0000000  0.0000000
                       0.0000000  0.0000000  0.0000000     0.0000000  0.0000000 -0.4285714
                       0.0000000  0.0000000 -0.4285714     0.0000000  0.0000000  0.0000000
           toldff      5.00000000E-05
           tolmxf      5.00000000E-04
            typat1     1  1  1
            typat2     1  1  1  1
            typat3     1  1  1  1  1
              wtk        0.12500    0.12500    0.25000    0.12500    0.25000    0.12500
           xangst1     0.0000000000E+00  0.0000000000E+00 -8.8841339513E-02
                       0.0000000000E+00  1.9858938206E+00  1.9858938206E+00
                       0.0000000000E+00  0.0000000000E+00  4.0606289808E+00
           xangst2     0.0000000000E+00  0.0000000000E+00 -1.7582373533E-01
                       0.0000000000E+00  1.9858938206E+00  1.9182561358E+00
                       0.0000000000E+00  0.0000000000E+00  4.0394253261E+00
                       0.0000000000E+00  1.9858938206E+00  6.1335051972E+00
           xangst3     0.0000000000E+00  0.0000000000E+00 -1.0354237989E-01
                       0.0000000000E+00  1.9858938206E+00  1.9260329005E+00
                       0.0000000000E+00  0.0000000000E+00  3.9717876413E+00
                       0.0000000000E+00  1.9858938206E+00  6.0175423821E+00
                       0.0000000000E+00  0.0000000000E+00  8.0471176625E+00
            xcart1     0.0000000000E+00  0.0000000000E+00 -1.6788580096E-01
                       0.0000000000E+00  3.7527954500E+00  3.7527954500E+00
                       0.0000000000E+00  0.0000000000E+00  7.6734767010E+00
            xcart2     0.0000000000E+00  0.0000000000E+00 -3.3225870743E-01
                       0.0000000000E+00  3.7527954500E+00  3.6249787495E+00
                       0.0000000000E+00  0.0000000000E+00  7.6334076005E+00
                       0.0000000000E+00  3.7527954500E+00  1.1590645057E+01
            xcart3     0.0000000000E+00  0.0000000000E+00 -1.9566674115E-01
                       0.0000000000E+00  3.7527954500E+00  3.6396747049E+00
                       0.0000000000E+00  0.0000000000E+00  7.5055909000E+00
                       0.0000000000E+00  3.7527954500E+00  1.1371507095E+01
                       0.0000000000E+00  0.0000000000E+00  1.5206848541E+01
             xred1     0.0000000000E+00  0.0000000000E+00 -8.9472396349E-03
                      -5.0000000000E-01  5.0000000000E-01  2.0000000000E-01
                       0.0000000000E+00  0.0000000000E+00  4.0894723963E-01
             xred2     0.0000000000E+00  0.0000000000E+00 -1.4756053714E-02
                      -5.0000000000E-01  5.0000000000E-01  1.6099015599E-01
                       0.0000000000E+00  0.0000000000E+00  3.3900984401E-01
                      -5.0000000000E-01  5.0000000000E-01  5.1475605371E-01
             xred3     0.0000000000E+00  0.0000000000E+00 -7.4484186428E-03
                      -5.0000000000E-01  5.0000000000E-01  1.3855099117E-01
                       0.0000000000E+00  0.0000000000E+00  2.8571428571E-01
                      -5.0000000000E-01  5.0000000000E-01  4.3287758026E-01
                       0.0000000000E+00  0.0000000000E+00  5.7887699007E-01
            znucl       13.00000

================================================================================
  

================================================================================

 Suggested references for the acknowledgment of ABINIT usage.

 The users of ABINIT have little formal obligations with respect to the ABINIT group
 (those specified in the GNU General Public License, http://www.gnu.org/copyleft/gpl.txt).
 However, it is common practice in the scientific literature,
 to acknowledge the efforts of people that have made the research possible.
 In this spirit, please find below suggested citations of work written by ABINIT developers,
 corresponding to implementations inside of ABINIT that you have used in the present run.
 Note also that it will be of great value to readers of publications presenting these results,
 to read papers enabling them to understand the theoretical formalism and details
 of the ABINIT implementation.
 For information on why they are suggested, see also http://www.abinit.org/about/?text=acknowledgments.

 [1] Preconditioning of self-consistent-field cycles in density functional theory : the extrapolar method
 P.-M. Anglade, X. Gonze, Phys. Rev. B 78, 045126 (2008).
 Comment : to be cited in case the extrapolar conditioner is used, i.e. non-vanishing iprcel.

 [2] Ab initio pseudopotentials for electronic structure calculations of poly-atomic systems, 
 using density-functional theory.
 M. Fuchs, M. Scheffler, Comput. Phys. Commun. 119, 67 (1999).
 Comment : Some pseudopotential generated using the FHI code were used.

 [3] ABINIT : First-principles approach of materials and nanosystem properties.
 X. Gonze, B. Amadon, P.-M. Anglade, J.-M. Beuken, F. Bottin, P. Boulanger, F. Bruneval,
 D. Caliste, R. Caracas, M. Cote, T. Deutsch, L. Genovese, Ph. Ghosez, M. Giantomassi
 S. Goedecker, D.R. Hamann, P. Hermet, F. Jollet, G. Jomard, S. Leroux, M. Mancini, S. Mazevet,
 M.J.T. Oliveira, G. Onida, Y. Pouillon, T. Rangel, G.-M. Rignanese, D. Sangalli, R. Shaltaf,
 M. Torrent, M.J. Verstraete, G. Zerah, J.W. Zwanziger
 Computer Phys. Comm. 180, 2582-2615 (2009).
 Comment : the third generic paper describing the ABINIT project.
 Note that a version of this paper, that is not formatted for Computer Phys. Comm. 
 is available at http://www.abinit.org/about/ABINIT_CPC_v10.pdf .
 The licence allows the authors to put it on the Web.

 [4] A brief introduction to the ABINIT software package.
 X. Gonze, G.-M. Rignanese, M. Verstraete, J.-M. Beuken, Y. Pouillon, R. Caracas, F. Jollet,
 M. Torrent, G. Zerah, M. Mikami, Ph. Ghosez, M. Veithen, J.-Y. Raty, V. Olevano, F. Bruneval,
 L. Reining, R. Godby, G. Onida, D.R. Hamann, and D.C. Allan.
 Z. Kristallogr. 220, 558-562 (2005).
 Comment : the second generic paper describing the ABINIT project. Note that this paper
 should be cited especially if you are using the GW part of ABINIT, as several authors
 of this part are not in the list of authors of the first or third paper.
 The .pdf of the latter paper is available at http://www.abinit.org/about/zfk_0505-06_558-562.pdf.
 Note that it should not redistributed (Copyright by Oldenburg Wissenshaftverlag,
 the licence allows the authors to put it on the Web).


 And optionally :

 [5] First-principles computation of material properties : the ABINIT software project. 
 X. Gonze, J.-M. Beuken, R. Caracas, F. Detraux, M. Fuchs, G.-M. Rignanese, L. Sindic,
 M. Verstraete, G. Zerah, F. Jollet, M. Torrent, A. Roy, M. Mikami, Ph. Ghosez, J.-Y. Raty, D.C. Allan.
 Computational Materials Science 25, 478-492 (2002). http://dx.doi.org/10.1016/S0927-0256(02)00325-7
 Comment : the original paper describing the ABINIT project.
 Proc.   0 individual time (sec): cpu=         21.1  wall=         22.8

 Calculation completed.
.Delivered   20 WARNINGs and   6 COMMENTs to log file.
