
.Version 7.4.3 of ABINIT 
.(MPI version, prepared for a i686_cygwin_gnu4.7 computer) 

.Copyright (C) 1998-2013 ABINIT group . 
 ABINIT comes with ABSOLUTELY NO WARRANTY.
 It is free software, and you are welcome to redistribute it
 under certain conditions (GNU General Public License,
 see ~abinit/COPYING or http://www.gnu.org/copyleft/gpl.txt).

 ABINIT is a project of the Universite Catholique de Louvain,
 Corning Inc. and other collaborators, see ~abinit/doc/developers/contributors.txt .
 Please read ~abinit/doc/users/acknowledgments.html for suggested
 acknowledgments of the ABINIT effort.
 For more information, see http://www.abinit.org .

.Starting date : Mon  4 Jun 2018.
- ( at 13h01 )
  

 herald :  WARNING -
  The starting date is more than 3 years after the initial release
  of this version of ABINIT, namely Aug 2013.
  This version of ABINIT is not supported anymore.
  Action : please, switch to a more recent version of ABINIT.
- input  file    -> tbase4_7.in
- output file    -> tbase4_7.out
- root for input  files -> tbase4_xi
- root for output files -> tbase4_xo


 DATASET    1 : space group P4/m m m (#123); Bravais tP (primitive tetrag.)
================================================================================
 Values of the parameters that define the memory need for DATASET  1.
   intxc =         0  ionmov =         2    iscf =         7 xclevel =         1
  lmnmax =         3   lnmax =         3   mband =         7  mffmem =         1
P  mgfft =        45   mkmem =         6 mpssoang=         3     mpw =       378
  mqgrid =      3001   natom =         3    nfft =      6480    nkpt =         6
  nloalg =         4  nspden =         1 nspinor =         1  nsppol =         1
    nsym =        16  n1xccc =         0  ntypat =         1  occopt =         4
 For the susceptibility and dielectric matrices, or tddft :
   mgfft =        30  nbnd_in_blk=     4    nfft =      1920     npw =        85
================================================================================
P This job should need less than                       3.644 Mbytes of memory.
  Rough estimation (10% accuracy) of disk space for files :
_ WF disk file :      0.244 Mbytes ; DEN or POT disk file :      0.051 Mbytes.
================================================================================


 DATASET    2 : space group P4/n m m (#129); Bravais tP (primitive tetrag.)
================================================================================
 Values of the parameters that define the memory need for DATASET  2.
   intxc =         0  ionmov =         2    iscf =         7 xclevel =         1
  lmnmax =         3   lnmax =         3   mband =         8  mffmem =         1
P  mgfft =        50   mkmem =         6 mpssoang=         3     mpw =       452
  mqgrid =      3001   natom =         4    nfft =      7200    nkpt =         6
  nloalg =         4  nspden =         1 nspinor =         1  nsppol =         1
    nsym =        16  n1xccc =         0  ntypat =         1  occopt =         4
 For the susceptibility and dielectric matrices, or tddft :
   mgfft =        36  nbnd_in_blk=     4    nfft =      2304     npw =       103
================================================================================
P This job should need less than                       4.081 Mbytes of memory.
  Rough estimation (10% accuracy) of disk space for files :
_ WF disk file :      0.333 Mbytes ; DEN or POT disk file :      0.057 Mbytes.
================================================================================


 DATASET    3 : space group P4/m m m (#123); Bravais tP (primitive tetrag.)
================================================================================
 Values of the parameters that define the memory need for DATASET  3.
   intxc =         0  ionmov =         2    iscf =         7 xclevel =         1
  lmnmax =         3   lnmax =         3   mband =        11  mffmem =         1
P  mgfft =        60   mkmem =         6 mpssoang=         3     mpw =       532
  mqgrid =      3001   natom =         5    nfft =      8640    nkpt =         6
  nloalg =         4  nspden =         1 nspinor =         1  nsppol =         1
    nsym =        16  n1xccc =         0  ntypat =         1  occopt =         4
 For the susceptibility and dielectric matrices, or tddft :
   mgfft =        40  nbnd_in_blk=     6    nfft =      2560     npw =       121
================================================================================
P This job should need less than                       4.857 Mbytes of memory.
  Rough estimation (10% accuracy) of disk space for files :
_ WF disk file :      0.538 Mbytes ; DEN or POT disk file :      0.068 Mbytes.
================================================================================

--------------------------------------------------------------------------------
------------- Echo of variables that govern the present computation ------------
--------------------------------------------------------------------------------
-
- outvars: echo of selected default values                                      
-   accesswff0 =  0 , fftalg0 =112 , wfoptalg0 =  0
-
- outvars: echo of global parameters not present in the input file              
-  max_nthreads =    0
-
 -outvars: echo values of preprocessed input variables --------
            acell      7.5055909000E+00  7.5055909000E+00  7.5055909000E+00 Bohr
              amu      2.69815390E+01
      chksymbreak           0
             ecut      6.00000000E+00 Hartree
           ionmov           2
           iprcel          45
           jdtset        1    2    3
              kpt      0.00000000E+00  1.25000000E-01  0.00000000E+00
                       0.00000000E+00  3.75000000E-01  0.00000000E+00
                       1.25000000E-01  2.50000000E-01  0.00000000E+00
                       1.25000000E-01  5.00000000E-01  0.00000000E+00
                       2.50000000E-01  3.75000000E-01  0.00000000E+00
                       3.75000000E-01  5.00000000E-01  0.00000000E+00
         kptrlatt        4   -4    0      4    4    0      0    0    1
          kptrlen      3.00223636E+01
P           mkmem           6
            natom1          3
            natom2          4
            natom3          5
            nband1          7
            nband2          8
            nband3         11
           ndtset           3
            ngfft1         12      12      45
            ngfft2         12      12      50
            ngfft3         12      12      60
             nkpt           6
            nstep          10
             nsym          16
            ntime          10
           ntypat           1
              occ1     2.000000  2.000000  2.000000  2.000000  1.000000  0.000000
                       0.000000
                       2.000000  2.000000  2.000000  2.000000  1.000000  0.000000
                       0.000000
                       2.000000  2.000000  2.000000  2.000000  1.000000  0.000000
                       0.000000
                       2.000000  2.000000  2.000000  2.000000  1.000000  0.000000
                       0.000000
                       2.000000  2.000000  2.000000  2.000000  1.000000  0.000000
                       0.000000
                       2.000000  2.000000  2.000000  2.000000  1.000000  0.000000
                       0.000000
              occ2     2.000000  2.000000  2.000000  2.000000  2.000000  2.000000
                       0.000000  0.000000
                       2.000000  2.000000  2.000000  2.000000  2.000000  2.000000
                       0.000000  0.000000
                       2.000000  2.000000  2.000000  2.000000  2.000000  2.000000
                       0.000000  0.000000
                       2.000000  2.000000  2.000000  2.000000  2.000000  2.000000
                       0.000000  0.000000
                       2.000000  2.000000  2.000000  2.000000  2.000000  2.000000
                       0.000000  0.000000
                       2.000000  2.000000  2.000000  2.000000  2.000000  2.000000
                       0.000000  0.000000
              occ3     2.000000  2.000000  2.000000  2.000000  2.000000  2.000000
                       2.000000  1.000000  0.000000  0.000000  0.000000
                       2.000000  2.000000  2.000000  2.000000  2.000000  2.000000
                       2.000000  1.000000  0.000000  0.000000  0.000000
                       2.000000  2.000000  2.000000  2.000000  2.000000  2.000000
                       2.000000  1.000000  0.000000  0.000000  0.000000
                       2.000000  2.000000  2.000000  2.000000  2.000000  2.000000
                       2.000000  1.000000  0.000000  0.000000  0.000000
                       2.000000  2.000000  2.000000  2.000000  2.000000  2.000000
                       2.000000  1.000000  0.000000  0.000000  0.000000
                       2.000000  2.000000  2.000000  2.000000  2.000000  2.000000
                       2.000000  1.000000  0.000000  0.000000  0.000000
           occopt           4
        optforces           1
            rprim1     5.0000000000E-01 -5.0000000000E-01  0.0000000000E+00
                       5.0000000000E-01  5.0000000000E-01  0.0000000000E+00
                       0.0000000000E+00  0.0000000000E+00  2.5000000000E+00
            rprim2     5.0000000000E-01 -5.0000000000E-01  0.0000000000E+00
                       5.0000000000E-01  5.0000000000E-01  0.0000000000E+00
                       0.0000000000E+00  0.0000000000E+00  3.0000000000E+00
            rprim3     5.0000000000E-01 -5.0000000000E-01  0.0000000000E+00
                       5.0000000000E-01  5.0000000000E-01  0.0000000000E+00
                       0.0000000000E+00  0.0000000000E+00  3.5000000000E+00
           shiftk     -5.00000000E-01  5.00000000E-01  0.00000000E+00
          spgroup1        123
          spgroup2        129
          spgroup3        123
           symrel      1  0  0   0  1  0   0  0  1      -1  0  0   0 -1  0   0  0 -1
                      -1  0  0   0  1  0   0  0 -1       1  0  0   0 -1  0   0  0  1
                      -1  0  0   0 -1  0   0  0  1       1  0  0   0  1  0   0  0 -1
                       1  0  0   0 -1  0   0  0 -1      -1  0  0   0  1  0   0  0  1
                       0  1  0   1  0  0   0  0  1       0 -1  0  -1  0  0   0  0 -1
                       0 -1  0   1  0  0   0  0 -1       0  1  0  -1  0  0   0  0  1
                       0 -1  0  -1  0  0   0  0  1       0  1  0   1  0  0   0  0 -1
                       0  1  0  -1  0  0   0  0 -1       0 -1  0   1  0  0   0  0  1
            tnons1     0.0000000  0.0000000  0.0000000     0.0000000  0.0000000  0.4000000
                       0.0000000  0.0000000  0.4000000     0.0000000  0.0000000  0.0000000
                       0.0000000  0.0000000  0.0000000     0.0000000  0.0000000  0.4000000
                       0.0000000  0.0000000  0.4000000     0.0000000  0.0000000  0.0000000
                       0.0000000  0.0000000  0.0000000     0.0000000  0.0000000  0.4000000
                       0.0000000  0.0000000  0.4000000     0.0000000  0.0000000  0.0000000
                       0.0000000  0.0000000  0.0000000     0.0000000  0.0000000  0.4000000
                       0.0000000  0.0000000  0.4000000     0.0000000  0.0000000  0.0000000
            tnons2     0.0000000  0.0000000  0.0000000     0.5000000  0.5000000  0.5000000
                       0.5000000  0.5000000  0.5000000     0.0000000  0.0000000  0.0000000
                       0.0000000  0.0000000  0.0000000     0.5000000  0.5000000  0.5000000
                       0.5000000  0.5000000  0.5000000     0.0000000  0.0000000  0.0000000
                       0.0000000  0.0000000  0.0000000     0.5000000  0.5000000  0.5000000
                       0.5000000  0.5000000  0.5000000     0.0000000  0.0000000  0.0000000
                       0.0000000  0.0000000  0.0000000     0.5000000  0.5000000  0.5000000
                       0.5000000  0.5000000  0.5000000     0.0000000  0.0000000  0.0000000
            tnons3     0.0000000  0.0000000  0.0000000     0.0000000  0.0000000 -0.4285714
                       0.0000000  0.0000000 -0.4285714     0.0000000  0.0000000  0.0000000
                       0.0000000  0.0000000  0.0000000     0.0000000  0.0000000 -0.4285714
                       0.0000000  0.0000000 -0.4285714     0.0000000  0.0000000  0.0000000
                       0.0000000  0.0000000  0.0000000     0.0000000  0.0000000 -0.4285714
                       0.0000000  0.0000000 -0.4285714     0.0000000  0.0000000  0.0000000
                       0.0000000  0.0000000  0.0000000     0.0000000  0.0000000 -0.4285714
                       0.0000000  0.0000000 -0.4285714     0.0000000  0.0000000  0.0000000
           toldff      5.00000000E-05
           tolmxf      5.00000000E-04
            typat1     1  1  1
            typat2     1  1  1  1
            typat3     1  1  1  1  1
              wtk        0.12500    0.12500    0.25000    0.12500    0.25000    0.12500
           xangst1     0.0000000000E+00  0.0000000000E+00  0.0000000000E+00
                       0.0000000000E+00  1.9858938206E+00  1.9858938206E+00
                       0.0000000000E+00  0.0000000000E+00  3.9717876413E+00
           xangst2     0.0000000000E+00  0.0000000000E+00  0.0000000000E+00
                       0.0000000000E+00  1.9858938206E+00  1.9858938206E+00
                       0.0000000000E+00  0.0000000000E+00  3.9717876413E+00
                       0.0000000000E+00  1.9858938206E+00  5.9576814619E+00
           xangst3     0.0000000000E+00  0.0000000000E+00  0.0000000000E+00
                       0.0000000000E+00  1.9858938206E+00  1.9858938206E+00
                       0.0000000000E+00  0.0000000000E+00  3.9717876413E+00
                       0.0000000000E+00  1.9858938206E+00  5.9576814619E+00
                       0.0000000000E+00  0.0000000000E+00  7.9435752826E+00
            xcart1     0.0000000000E+00  0.0000000000E+00  0.0000000000E+00
                       0.0000000000E+00  3.7527954500E+00  3.7527954500E+00
                       0.0000000000E+00  0.0000000000E+00  7.5055909000E+00
            xcart2     0.0000000000E+00  0.0000000000E+00  0.0000000000E+00
                       0.0000000000E+00  3.7527954500E+00  3.7527954500E+00
                       0.0000000000E+00  0.0000000000E+00  7.5055909000E+00
                       0.0000000000E+00  3.7527954500E+00  1.1258386350E+01
            xcart3     0.0000000000E+00  0.0000000000E+00  0.0000000000E+00
                       0.0000000000E+00  3.7527954500E+00  3.7527954500E+00
                       0.0000000000E+00  0.0000000000E+00  7.5055909000E+00
                       0.0000000000E+00  3.7527954500E+00  1.1258386350E+01
                       0.0000000000E+00  0.0000000000E+00  1.5011181800E+01
             xred1     0.0000000000E+00  0.0000000000E+00  0.0000000000E+00
                      -5.0000000000E-01  5.0000000000E-01  2.0000000000E-01
                       0.0000000000E+00  0.0000000000E+00  4.0000000000E-01
             xred2     0.0000000000E+00  0.0000000000E+00  0.0000000000E+00
                      -5.0000000000E-01  5.0000000000E-01  1.6666666667E-01
                       0.0000000000E+00  0.0000000000E+00  3.3333333333E-01
                      -5.0000000000E-01  5.0000000000E-01  5.0000000000E-01
             xred3     0.0000000000E+00  0.0000000000E+00  0.0000000000E+00
                      -5.0000000000E-01  5.0000000000E-01  1.4285714286E-01
                       0.0000000000E+00  0.0000000000E+00  2.8571428571E-01
                      -5.0000000000E-01  5.0000000000E-01  4.2857142857E-01
                       0.0000000000E+00  0.0000000000E+00  5.7142857143E-01
            znucl       13.00000

================================================================================

 chkinp: Checking input parameters for consistency, jdtset=   1.

 chkinp: Checking input parameters for consistency, jdtset=   2.

 chkinp: Checking input parameters for consistency, jdtset=   3.

================================================================================
== DATASET  1 ==================================================================
-   nproc =    1

 Exchange-correlation functional for the present dataset will be:
  LDA: new Teter (4/93) with spin-polarized option - ixc=1
 Citation for XC functional:
  S. Goedecker, M. Teter, J. Huetter, PRB 54, 1703 (1996)

 Real(R)+Recip(G) space primitive vectors, cartesian coordinates (Bohr,Bohr^-1):
 R(1)=  3.7527955 -3.7527954  0.0000000  G(1)=  0.1332340 -0.1332340  0.0000000
 R(2)=  3.7527955  3.7527955  0.0000000  G(2)=  0.1332340  0.1332340  0.0000000
 R(3)=  0.0000000  0.0000000 18.7639773  G(3)=  0.0000000  0.0000000  0.0532936
 Unit cell volume ucvol=  5.2852396E+02 bohr^3
 Angles (23,13,12)=  9.00000000E+01  9.00000000E+01  9.00000000E+01 degrees

 getcut: wavevector=  0.0000  0.0000  0.0000  ngfft=  12  12  45
         ecut(hartree)=      6.000   => boxcut(ratio)=   2.05055

--- Pseudopotential description ------------------------------------------------
- pspini: atom type   1  psp file is 13al.981214.fhi
- pspatm: opening atomic psp file    13al.981214.fhi
- Aluminum, fhi98PP : Hamann-type, LDA CA PerdewWang, l=2 local
- 13.00000   3.00000    981214                znucl, zion, pspdat
    6    7    2    2       493   0.00000      pspcod,pspxc,lmax,lloc,mmax,r2well
  No XC core correction.
  1.024700          amesh (Hamman grid)
 pspatm: epsatm=    1.36305739
         --- l  ekb(1:nproj) -->
             0    1.768744
             1    0.900554
 pspatm: atomic psp has been read  and splines computed

   3.68025494E+01                                ecore*ucvol(ha*bohr**3)
--------------------------------------------------------------------------------

P newkpt: treating      7 bands with npw=     356 for ikpt=   1 by node    0
P newkpt: treating      7 bands with npw=     368 for ikpt=   2 by node    0
P newkpt: treating      7 bands with npw=     362 for ikpt=   3 by node    0
P newkpt: treating      7 bands with npw=     368 for ikpt=   4 by node    0
P newkpt: treating      7 bands with npw=     378 for ikpt=   5 by node    0
P newkpt: treating      7 bands with npw=     372 for ikpt=   6 by node    0

_setup2: Arith. and geom. avg. npw (full set) are     368.000     367.927

================================================================================

=== [ionmov= 2] Broyden-Fletcher-Goldfard-Shanno method (forces)            
================================================================================

--- Iteration: ( 1/10) Internal Cycle: (1/1)
--------------------------------------------------------------------------------

---SELF-CONSISTENT-FIELD CONVERGENCE--------------------------------------------

     iter   Etot(hartree)      deltaE(h)  residm     vres2    diffor    maxfor
 ETOT  1  -6.1883559736790    -6.188E+00 3.166E-03 1.753E+02 8.073E-03 8.073E-03
 ETOT  2  -6.2520805584515    -6.372E-02 2.065E-04 5.483E+00 1.306E-02 4.991E-03
 ETOT  3  -6.2539319959764    -1.851E-03 2.999E-05 2.050E-02 8.162E-04 4.175E-03
 ETOT  4  -6.2539516662764    -1.967E-05 2.435E-06 2.488E-03 1.604E-04 4.335E-03
 ETOT  5  -6.2539524347355    -7.685E-07 1.493E-07 7.945E-07 2.466E-05 4.310E-03
 ETOT  6  -6.2539524363100    -1.574E-09 2.288E-08 7.104E-08 9.835E-07 4.309E-03

 At SCF step    6, forces are converged : 
  for the second time, max diff in force=  9.835E-07 < toldff=  5.000E-05

 Cartesian components of stress tensor (hartree/bohr^3)
  sigma(1 1)=  1.30985968E-04  sigma(3 2)=  0.00000000E+00
  sigma(2 2)=  1.30985968E-04  sigma(3 1)=  0.00000000E+00
  sigma(3 3)= -5.46820486E-05  sigma(2 1)=  0.00000000E+00


---OUTPUT-----------------------------------------------------------------------

 Cartesian coordinates (xcart) [bohr]
  0.00000000000000E+00  0.00000000000000E+00  0.00000000000000E+00
  0.00000000000000E+00  3.75279545000000E+00  3.75279545000000E+00
  0.00000000000000E+00  0.00000000000000E+00  7.50559090000000E+00
 Reduced coordinates (xred)
  0.00000000000000E+00  0.00000000000000E+00  0.00000000000000E+00
 -5.00000000000000E-01  5.00000000000000E-01  2.00000000000000E-01
  0.00000000000000E+00  0.00000000000000E+00  4.00000000000000E-01
 Cartesian forces (fcart) [Ha/bohr]; max,rms= 4.30948E-03 2.03151E-03 (free atoms)
 -0.00000000000000E+00 -0.00000000000000E+00 -4.30947544345790E-03
 -0.00000000000000E+00 -0.00000000000000E+00 -0.00000000000000E+00
 -0.00000000000000E+00 -0.00000000000000E+00  4.30947544345790E-03
 Reduced forces (fred)
  0.00000000000000E+00  0.00000000000000E+00  8.08628991804776E-02
  0.00000000000000E+00  0.00000000000000E+00  0.00000000000000E+00
  0.00000000000000E+00  0.00000000000000E+00 -8.08628991804776E-02
 Total energy (etotal) [Ha]= -6.25395243630998E+00

--- Iteration: ( 2/10) Internal Cycle: (1/1)
--------------------------------------------------------------------------------

---SELF-CONSISTENT-FIELD CONVERGENCE--------------------------------------------

     iter   Etot(hartree)      deltaE(h)  residm     vres2    diffor    maxfor
 ETOT  1  -6.2539882785393    -6.254E+00 2.161E-09 1.559E-03 1.053E-04 4.204E-03
 ETOT  2  -6.2539890820828    -8.035E-07 1.994E-11 5.424E-05 9.029E-06 4.195E-03
 ETOT  3  -6.2539890999073    -1.782E-08 2.181E-10 3.600E-07 3.717E-06 4.199E-03

 At SCF step    3, forces are converged : 
  for the second time, max diff in force=  3.717E-06 < toldff=  5.000E-05

 Cartesian components of stress tensor (hartree/bohr^3)
  sigma(1 1)=  1.32118482E-04  sigma(3 2)=  0.00000000E+00
  sigma(2 2)=  1.32118482E-04  sigma(3 1)=  0.00000000E+00
  sigma(3 3)= -5.32832580E-05  sigma(2 1)=  0.00000000E+00


---OUTPUT-----------------------------------------------------------------------

 Cartesian coordinates (xcart) [bohr]
  0.00000000000000E+00  0.00000000000000E+00 -4.30947544345790E-03
  0.00000000000000E+00  3.75279545000000E+00  3.75279545000000E+00
  0.00000000000000E+00  0.00000000000000E+00  7.50990037544346E+00
 Reduced coordinates (xred)
  0.00000000000000E+00  0.00000000000000E+00 -2.29667483926303E-04
 -5.00000000000000E-01  5.00000000000000E-01  2.00000000000000E-01
  0.00000000000000E+00  0.00000000000000E+00  4.00229667483926E-01
 Cartesian forces (fcart) [Ha/bohr]; max,rms= 4.19886E-03 1.97936E-03 (free atoms)
 -0.00000000000000E+00 -0.00000000000000E+00 -4.19885513791864E-03
 -0.00000000000000E+00 -0.00000000000000E+00 -0.00000000000000E+00
 -0.00000000000000E+00 -0.00000000000000E+00  4.19885513791864E-03
 Reduced forces (fred)
  0.00000000000000E+00  0.00000000000000E+00  7.87872222839510E-02
  0.00000000000000E+00  0.00000000000000E+00  0.00000000000000E+00
  0.00000000000000E+00  0.00000000000000E+00 -7.87872222839510E-02
 Total energy (etotal) [Ha]= -6.25398909990728E+00

 Difference of energy with previous step (new-old):
           Absolute (Ha)=-3.66636E-05
           Relative     =-5.86245E-06

--- Iteration: ( 3/10) Internal Cycle: (1/1)
--------------------------------------------------------------------------------

---SELF-CONSISTENT-FIELD CONVERGENCE--------------------------------------------

     iter   Etot(hartree)      deltaE(h)  residm     vres2    diffor    maxfor
 ETOT  1  -6.2541339148217    -6.254E+00 6.330E-07 1.138E+00 4.158E-03 4.093E-05
 ETOT  2  -6.2546788971305    -5.450E-04 6.778E-08 5.876E-02 9.406E-05 1.350E-04
 ETOT  3  -6.2546986911843    -1.979E-05 2.474E-07 7.713E-04 8.344E-05 2.184E-04
 ETOT  4  -6.2546990337000    -3.425E-07 2.201E-09 1.196E-06 1.257E-05 2.059E-04
 ETOT  5  -6.2546990353495    -1.650E-09 1.372E-10 2.286E-08 1.471E-06 2.044E-04

 At SCF step    5, forces are converged : 
  for the second time, max diff in force=  1.471E-06 < toldff=  5.000E-05

 Cartesian components of stress tensor (hartree/bohr^3)
  sigma(1 1)=  1.70748476E-04  sigma(3 2)=  0.00000000E+00
  sigma(2 2)=  1.70748476E-04  sigma(3 1)=  0.00000000E+00
  sigma(3 3)= -1.01173595E-06  sigma(2 1)=  0.00000000E+00


---OUTPUT-----------------------------------------------------------------------

 Cartesian coordinates (xcart) [bohr]
  0.00000000000000E+00  0.00000000000000E+00 -1.67885800958817E-01
  0.00000000000000E+00  3.75279545000000E+00  3.75279545000000E+00
  0.00000000000000E+00  0.00000000000000E+00  7.67347670095880E+00
 Reduced coordinates (xred)
  0.00000000000000E+00  0.00000000000000E+00 -8.94723963486030E-03
 -5.00000000000000E-01  5.00000000000000E-01  2.00000000000000E-01
  0.00000000000000E+00  0.00000000000000E+00  4.08947239634859E-01
 Cartesian forces (fcart) [Ha/bohr]; max,rms= 2.04383E-04 9.63468E-05 (free atoms)
 -0.00000000000000E+00 -0.00000000000000E+00 -2.04382507764582E-04
 -0.00000000000000E+00 -0.00000000000000E+00 -0.00000000000000E+00
 -0.00000000000000E+00 -0.00000000000000E+00  2.04382507764582E-04
 Reduced forces (fred)
  0.00000000000000E+00  0.00000000000000E+00  3.83502872599257E-03
  0.00000000000000E+00  0.00000000000000E+00  0.00000000000000E+00
  0.00000000000000E+00  0.00000000000000E+00 -3.83502872599257E-03
 Total energy (etotal) [Ha]= -6.25469903534955E+00

 Difference of energy with previous step (new-old):
           Absolute (Ha)=-7.09935E-04
           Relative     =-1.13511E-04

 At Broyd/MD step   3, gradients are converged : 
  max grad (force/stress) = 2.0438E-04 < tolmxf= 5.0000E-04 ha/bohr (free atoms)

================================================================================

 ----iterations are completed or convergence reached----

 Mean square residual over all n,k,spin=   8.5796E-12; max=  1.3718E-10
   0.0000  0.1250  0.0000    1  2.06931E-11 kpt; spin; max resid(k); each band:
  4.82E-12 6.05E-12 1.96E-11 5.62E-12 2.07E-11 1.78E-12 5.96E-12
   0.0000  0.3750  0.0000    1  6.45792E-12 kpt; spin; max resid(k); each band:
  2.85E-12 6.46E-12 2.78E-12 2.33E-12 4.59E-13 6.36E-12 4.28E-12
   0.1250  0.2500  0.0000    1  2.24292E-11 kpt; spin; max resid(k); each band:
  4.63E-12 5.86E-12 1.91E-11 6.29E-12 1.02E-12 1.49E-12 2.24E-11
   0.1250  0.5000  0.0000    1  8.69450E-12 kpt; spin; max resid(k); each band:
  2.23E-13 2.88E-12 8.69E-12 8.13E-14 1.28E-13 2.63E-12 8.58E-12
   0.2500  0.3750  0.0000    1  1.37180E-10 kpt; spin; max resid(k); each band:
  2.60E-12 5.88E-12 1.75E-12 1.25E-12 3.94E-13 6.83E-12 1.37E-10
   0.3750  0.5000  0.0000    1  2.34804E-11 kpt; spin; max resid(k); each band:
  1.96E-12 1.17E-12 2.57E-13 1.23E-13 2.18E-12 2.35E-11 1.13E-12
 reduced coordinates (array xred) for    3 atoms
       0.000000000000      0.000000000000     -0.008947239635
      -0.500000000000      0.500000000000      0.200000000000
       0.000000000000      0.000000000000      0.408947239635
 rms dE/dt=  1.8078E-03; max dE/dt=  3.8350E-03; dE/dt below (all hartree)
    1       0.000000000000      0.000000000000      0.003835028726
    2       0.000000000000      0.000000000000      0.000000000000
    3       0.000000000000      0.000000000000     -0.003835028726

 cartesian coordinates (angstrom) at end:
    1      0.00000000000000     0.00000000000000    -0.08884133951328
    2      0.00000000000000     1.98589382064025     1.98589382064025
    3      0.00000000000000     0.00000000000000     4.06062898079378

 cartesian forces (hartree/bohr) at end:
    1     -0.00000000000000    -0.00000000000000    -0.00020438250776
    2     -0.00000000000000    -0.00000000000000    -0.00000000000000
    3     -0.00000000000000    -0.00000000000000     0.00020438250776
 frms,max,avg= 9.6346838E-05 2.0438251E-04   0.000E+00  0.000E+00  0.000E+00 h/b

 cartesian forces (eV/Angstrom) at end:
    1     -0.00000000000000    -0.00000000000000    -0.01050977022966
    2     -0.00000000000000    -0.00000000000000    -0.00000000000000
    3     -0.00000000000000    -0.00000000000000     0.01050977022966
 frms,max,avg= 4.9543532E-03 1.0509770E-02   0.000E+00  0.000E+00  0.000E+00 e/A
 length scales=  7.505590900000  7.505590900000  7.505590900000 bohr
              =  3.971787641281  3.971787641281  3.971787641281 angstroms
 prteigrs : about to open file tbase4_xo_DS1_EIG
 Fermi (or HOMO) energy (hartree) =   0.11278   Average Vxc (hartree)=  -0.27127
 Eigenvalues (hartree) for nkpt=   6  k points:
 kpt#   1, nband=  7, wtk=  0.12500, kpt=  0.0000  0.1250  0.0000 (reduced coord)
  -0.25689  -0.17597  -0.05911   0.05818   0.17161   0.23046   0.30447
      occupation numbers for kpt#   1
   2.00000   2.00000   2.00000   2.13318   0.00291   0.00019   0.00000
 kpt#   2, nband=  7, wtk=  0.12500, kpt=  0.0000  0.3750  0.0000 (reduced coord)
  -0.17208  -0.09208  -0.00648   0.02370   0.07090   0.13878   0.18634
      occupation numbers for kpt#   2
   2.00000   2.00000   2.00057   2.01712   2.12202   0.10143   0.00517
 kpt#   3, nband=  7, wtk=  0.25000, kpt=  0.1250  0.2500  0.0000 (reduced coord)
  -0.21430  -0.13383  -0.01737   0.09773   0.11227   0.18966   0.21307
      occupation numbers for kpt#   3
   2.00000   2.00000   2.00012   1.49065   0.86286   0.00485   0.00118
 kpt#   4, nband=  7, wtk=  0.12500, kpt=  0.1250  0.5000  0.0000 (reduced coord)
  -0.09088  -0.08630  -0.01130  -0.00800   0.09288   0.11973   0.20090
      occupation numbers for kpt#   4
   2.00000   2.00000   2.00030   2.00047   1.67488   0.56606   0.00294
 kpt#   5, nband=  7, wtk=  0.25000, kpt=  0.2500  0.3750  0.0000 (reduced coord)
  -0.13023  -0.05071   0.03224   0.06449   0.10889   0.17762   0.20325
      occupation numbers for kpt#   5
   2.00000   2.00000   2.03489   2.14168   1.00953   0.00467   0.00253
 kpt#   6, nband=  7, wtk=  0.12500, kpt=  0.3750  0.5000  0.0000 (reduced coord)
  -0.01031  -0.00610   0.06926   0.06946   0.15865   0.16819   0.17274
      occupation numbers for kpt#   6
   2.00034   2.00060   2.13058   2.12968   0.00071   0.00160   0.00331
 Total charge density [el/Bohr^3]
,     Maximum=    3.4165E-02  at reduced coord.    0.0000    0.6667    0.4000
,Next maximum=    3.4165E-02  at reduced coord.    0.0000    0.3333    0.4000
,     Minimum=    2.2199E-04  at reduced coord.    0.5000    0.5000    0.6889
,Next minimum=    2.2199E-04  at reduced coord.    0.5000    0.5000    0.7111
,  Integrated=    9.0000E+00

--------------------------------------------------------------------------------
 Components of total free energy (in Hartree) :

    Kinetic energy  =  2.39240932720247E+00
    Hartree energy  =  3.34905997780284E+00
    XC energy       = -2.30506075370924E+00
    Ewald energy    = -3.40111266764175E+00
    PspCore energy  =  6.96326982763048E-02
    Loc. psp. energy= -7.72842745533214E+00
    NL   psp  energy=  1.37022400231417E+00
    >>>>> Internal E= -6.25327487108735E+00

    -kT*entropy     = -1.42416426219586E-03
    >>>>>>>>> Etotal= -6.25469903534955E+00

 Other information on the energy :
    Total energy(eV)= -1.70199016379668E+02 ; Band energy (Ha)=  -2.7012880956E-01
--------------------------------------------------------------------------------
 rms coord change=  4.2178E-03   atom, delta coord (reduced):
     1        0.000000000000      0.000000000000     -0.008947239635
     2        0.000000000000      0.000000000000      0.000000000000
     3        0.000000000000      0.000000000000      0.008947239635

 Cartesian components of stress tensor (hartree/bohr^3)
  sigma(1 1)=  1.70748476E-04  sigma(3 2)=  0.00000000E+00
  sigma(2 2)=  1.70748476E-04  sigma(3 1)=  0.00000000E+00
  sigma(3 3)= -1.01173595E-06  sigma(2 1)=  0.00000000E+00

-Cartesian components of stress tensor (GPa)         [Pressure= -3.3391E+00 GPa]
- sigma(1 1)=  5.02359277E+00  sigma(3 2)=  0.00000000E+00
- sigma(2 2)=  5.02359277E+00  sigma(3 1)=  0.00000000E+00
- sigma(3 3)= -2.97662944E-02  sigma(2 1)=  0.00000000E+00

================================================================================
== DATASET  2 ==================================================================
-   nproc =    1

 Exchange-correlation functional for the present dataset will be:
  LDA: new Teter (4/93) with spin-polarized option - ixc=1
 Citation for XC functional:
  S. Goedecker, M. Teter, J. Huetter, PRB 54, 1703 (1996)

 Real(R)+Recip(G) space primitive vectors, cartesian coordinates (Bohr,Bohr^-1):
 R(1)=  3.7527955 -3.7527954  0.0000000  G(1)=  0.1332340 -0.1332340  0.0000000
 R(2)=  3.7527955  3.7527955  0.0000000  G(2)=  0.1332340  0.1332340  0.0000000
 R(3)=  0.0000000  0.0000000 22.5167727  G(3)=  0.0000000  0.0000000  0.0444113
 Unit cell volume ucvol=  6.3422875E+02 bohr^3
 Angles (23,13,12)=  9.00000000E+01  9.00000000E+01  9.00000000E+01 degrees

 getcut: wavevector=  0.0000  0.0000  0.0000  ngfft=  12  12  50
         ecut(hartree)=      6.000   => boxcut(ratio)=   2.01383
   6.54267545E+01                                ecore*ucvol(ha*bohr**3)
--------------------------------------------------------------------------------

P newkpt: treating      8 bands with npw=     432 for ikpt=   1 by node    0
P newkpt: treating      8 bands with npw=     442 for ikpt=   2 by node    0
P newkpt: treating      8 bands with npw=     438 for ikpt=   3 by node    0
P newkpt: treating      8 bands with npw=     452 for ikpt=   4 by node    0
P newkpt: treating      8 bands with npw=     450 for ikpt=   5 by node    0
P newkpt: treating      8 bands with npw=     452 for ikpt=   6 by node    0

_setup2: Arith. and geom. avg. npw (full set) are     444.250     444.191

================================================================================

=== [ionmov= 2] Broyden-Fletcher-Goldfard-Shanno method (forces)            
================================================================================

--- Iteration: ( 1/10) Internal Cycle: (1/1)
--------------------------------------------------------------------------------

---SELF-CONSISTENT-FIELD CONVERGENCE--------------------------------------------

     iter   Etot(hartree)      deltaE(h)  residm     vres2    diffor    maxfor
 ETOT  1  -8.2571154630704    -8.257E+00 4.006E-03 3.485E+02 7.135E-03 7.135E-03
 ETOT  2  -8.3482157446056    -9.110E-02 9.173E-05 2.420E+01 1.384E-02 6.702E-03
 ETOT  3  -8.3546409550350    -6.425E-03 6.249E-05 1.125E-01 1.576E-03 6.181E-03
 ETOT  4  -8.3546859038954    -4.495E-05 2.588E-06 4.897E-03 2.005E-04 6.251E-03
 ETOT  5  -8.3546873340992    -1.430E-06 4.098E-07 2.107E-06 1.755E-05 6.233E-03
 ETOT  6  -8.3546873356953    -1.596E-09 2.816E-08 2.842E-07 1.003E-06 6.233E-03

 At SCF step    6, forces are converged : 
  for the second time, max diff in force=  1.003E-06 < toldff=  5.000E-05

 Cartesian components of stress tensor (hartree/bohr^3)
  sigma(1 1)=  1.43477494E-04  sigma(3 2)=  0.00000000E+00
  sigma(2 2)=  1.43477494E-04  sigma(3 1)=  0.00000000E+00
  sigma(3 3)= -5.96637764E-05  sigma(2 1)=  0.00000000E+00


---OUTPUT-----------------------------------------------------------------------

 Cartesian coordinates (xcart) [bohr]
  0.00000000000000E+00  0.00000000000000E+00  0.00000000000000E+00
  0.00000000000000E+00  3.75279545000000E+00  3.75279545000000E+00
  0.00000000000000E+00  0.00000000000000E+00  7.50559090000000E+00
  0.00000000000000E+00  3.75279545000000E+00  1.12583863500000E+01
 Reduced coordinates (xred)
  0.00000000000000E+00  0.00000000000000E+00  0.00000000000000E+00
 -5.00000000000000E-01  5.00000000000000E-01  1.66666666666667E-01
  0.00000000000000E+00  0.00000000000000E+00  3.33333333333333E-01
 -5.00000000000000E-01  5.00000000000000E-01  5.00000000000000E-01
 Cartesian forces (fcart) [Ha/bohr]; max,rms= 6.23292E-03 2.55521E-03 (free atoms)
 -0.00000000000000E+00 -0.00000000000000E+00 -6.23292412668210E-03
 -0.00000000000000E+00 -0.00000000000000E+00  5.70283806992912E-04
 -0.00000000000000E+00 -0.00000000000000E+00 -5.70283806992912E-04
 -0.00000000000000E+00 -0.00000000000000E+00  6.23292412668210E-03
 Reduced forces (fred)
  0.00000000000000E+00  0.00000000000000E+00  1.40345335816847E-01
  0.00000000000000E+00  0.00000000000000E+00 -1.28409508565501E-02
  0.00000000000000E+00  0.00000000000000E+00  1.28409508565501E-02
  0.00000000000000E+00  0.00000000000000E+00 -1.40345335816847E-01
 Total energy (etotal) [Ha]= -8.35468733569529E+00

--- Iteration: ( 2/10) Internal Cycle: (1/1)
--------------------------------------------------------------------------------

---SELF-CONSISTENT-FIELD CONVERGENCE--------------------------------------------

     iter   Etot(hartree)      deltaE(h)  residm     vres2    diffor    maxfor
 ETOT  1  -8.3547607087354    -8.355E+00 1.939E-09 9.123E-03 3.029E-04 5.996E-03
 ETOT  2  -8.3547639731518    -3.264E-06 3.766E-10 3.649E-04 3.834E-05 5.994E-03
 ETOT  3  -8.3547640651140    -9.196E-08 3.240E-09 4.956E-06 6.331E-06 5.999E-03

 At SCF step    3, forces are converged : 
  for the second time, max diff in force=  6.331E-06 < toldff=  5.000E-05

 Cartesian components of stress tensor (hartree/bohr^3)
  sigma(1 1)=  1.44366997E-04  sigma(3 2)=  0.00000000E+00
  sigma(2 2)=  1.44366997E-04  sigma(3 1)=  0.00000000E+00
  sigma(3 3)= -5.70291300E-05  sigma(2 1)=  0.00000000E+00


---OUTPUT-----------------------------------------------------------------------

 Cartesian coordinates (xcart) [bohr]
  0.00000000000000E+00  0.00000000000000E+00 -6.23292412668210E-03
  0.00000000000000E+00  3.75279545000000E+00  3.75336573380699E+00
  0.00000000000000E+00  0.00000000000000E+00  7.50502061619301E+00
  0.00000000000000E+00  3.75279545000000E+00  1.12646192741267E+01
 Reduced coordinates (xred)
  0.00000000000000E+00  0.00000000000000E+00 -2.76812499274468E-04
 -5.00000000000000E-01  5.00000000000000E-01  1.66691993733498E-01
  0.00000000000000E+00  0.00000000000000E+00  3.33308006266502E-01
 -5.00000000000000E-01  5.00000000000000E-01  5.00276812499275E-01
 Cartesian forces (fcart) [Ha/bohr]; max,rms= 5.99920E-03 2.45221E-03 (free atoms)
 -0.00000000000000E+00 -0.00000000000000E+00 -5.99920452895446E-03
 -0.00000000000000E+00 -0.00000000000000E+00  2.99404534151205E-04
 -0.00000000000000E+00 -0.00000000000000E+00 -2.99404534151205E-04
 -0.00000000000000E+00 -0.00000000000000E+00  5.99920452895446E-03
 Reduced forces (fred)
  0.00000000000000E+00  0.00000000000000E+00  1.35082724759278E-01
  0.00000000000000E+00  0.00000000000000E+00 -6.74162384083206E-03
  0.00000000000000E+00  0.00000000000000E+00  6.74162384083206E-03
  0.00000000000000E+00  0.00000000000000E+00 -1.35082724759278E-01
 Total energy (etotal) [Ha]= -8.35476406511402E+00

 Difference of energy with previous step (new-old):
           Absolute (Ha)=-7.67294E-05
           Relative     =-9.18395E-06

--- Iteration: ( 3/10) Internal Cycle: (1/1)
--------------------------------------------------------------------------------

---SELF-CONSISTENT-FIELD CONVERGENCE--------------------------------------------

     iter   Etot(hartree)      deltaE(h)  residm     vres2    diffor    maxfor
 ETOT  1  -8.3544456180308    -8.354E+00 1.399E-06 3.633E+00 6.585E-03 6.286E-03
 ETOT  2  -8.3556890652993    -1.243E-03 2.858E-07 1.804E-01 8.794E-04 5.406E-03
 ETOT  3  -8.3557349600040    -4.589E-05 4.039E-07 2.630E-03 1.336E-04 5.540E-03
 ETOT  4  -8.3557358287001    -8.687E-07 5.381E-09 6.662E-06 1.241E-05 5.536E-03
 ETOT  5  -8.3557358330374    -4.337E-09 3.353E-09 6.107E-08 2.534E-06 5.539E-03

 At SCF step    5, forces are converged : 
  for the second time, max diff in force=  2.534E-06 < toldff=  5.000E-05

 Cartesian components of stress tensor (hartree/bohr^3)
  sigma(1 1)=  1.61596435E-04  sigma(3 2)=  0.00000000E+00
  sigma(2 2)=  1.61596435E-04  sigma(3 1)=  0.00000000E+00
  sigma(3 3)=  6.68219338E-06  sigma(2 1)=  0.00000000E+00


---OUTPUT-----------------------------------------------------------------------

 Cartesian coordinates (xcart) [bohr]
  0.00000000000000E+00  0.00000000000000E+00 -1.57899956052668E-01
  0.00000000000000E+00  3.75279545000000E+00  3.76117649944625E+00
  0.00000000000000E+00  0.00000000000000E+00  7.49720985055375E+00
  0.00000000000000E+00  3.75279545000000E+00  1.14162863060527E+01
 Reduced coordinates (xred)
  0.00000000000000E+00  0.00000000000000E+00 -7.01254829705982E-03
 -5.00000000000000E-01  5.00000000000000E-01  1.67038880285284E-01
  0.00000000000000E+00  0.00000000000000E+00  3.32961119714716E-01
 -5.00000000000000E-01  5.00000000000000E-01  5.07012548297060E-01
 Cartesian forces (fcart) [Ha/bohr]; max,rms= 5.53880E-03 2.28379E-03 (free atoms)
 -0.00000000000000E+00 -0.00000000000000E+00 -7.84742690977260E-04
 -0.00000000000000E+00 -0.00000000000000E+00 -5.53879881286587E-03
 -0.00000000000000E+00 -0.00000000000000E+00  5.53879881286587E-03
 -0.00000000000000E+00 -0.00000000000000E+00  7.84742690977260E-04
 Reduced forces (fred)
  0.00000000000000E+00  0.00000000000000E+00  1.76698728007213E-02
  0.00000000000000E+00  0.00000000000000E+00  1.24715873900331E-01
  0.00000000000000E+00  0.00000000000000E+00 -1.24715873900331E-01
  0.00000000000000E+00  0.00000000000000E+00 -1.76698728007213E-02
 Total energy (etotal) [Ha]= -8.35573583303739E+00

 Difference of energy with previous step (new-old):
           Absolute (Ha)=-9.71768E-04
           Relative     =-1.16306E-04

--- Iteration: ( 4/10) Internal Cycle: (1/1)
--------------------------------------------------------------------------------

---SELF-CONSISTENT-FIELD CONVERGENCE--------------------------------------------

     iter   Etot(hartree)      deltaE(h)  residm     vres2    diffor    maxfor
 ETOT  1  -8.3557787042352    -8.356E+00 1.546E-07 9.059E-02 4.623E-04 5.853E-03
 ETOT  2  -8.3558114914946    -3.279E-05 4.716E-09 3.947E-03 1.309E-04 5.723E-03
 ETOT  3  -8.3558124918171    -1.000E-06 9.110E-09 7.914E-05 1.872E-05 5.741E-03
 ETOT  4  -8.3558125166328    -2.482E-08 1.431E-10 1.143E-07 2.106E-06 5.740E-03

 At SCF step    4, forces are converged : 
  for the second time, max diff in force=  2.106E-06 < toldff=  5.000E-05

 Cartesian components of stress tensor (hartree/bohr^3)
  sigma(1 1)=  1.63951960E-04  sigma(3 2)=  0.00000000E+00
  sigma(2 2)=  1.63951960E-04  sigma(3 1)=  0.00000000E+00
  sigma(3 3)=  1.44428833E-05  sigma(2 1)=  0.00000000E+00


---OUTPUT-----------------------------------------------------------------------

 Cartesian coordinates (xcart) [bohr]
  0.00000000000000E+00  0.00000000000000E+00 -1.77829229540120E-01
  0.00000000000000E+00  3.75279545000000E+00  3.75635256662495E+00
  0.00000000000000E+00  0.00000000000000E+00  7.50203378337505E+00
  0.00000000000000E+00  3.75279545000000E+00  1.14362155795401E+01
 Reduced coordinates (xred)
  0.00000000000000E+00  0.00000000000000E+00 -7.89763399530699E-03
 -5.00000000000000E-01  5.00000000000000E-01  1.66824642974921E-01
  0.00000000000000E+00  0.00000000000000E+00  3.33175357025079E-01
 -5.00000000000000E-01  5.00000000000000E-01  5.07897633995307E-01
 Cartesian forces (fcart) [Ha/bohr]; max,rms= 5.74001E-03 2.34733E-03 (free atoms)
 -0.00000000000000E+00 -0.00000000000000E+00 -3.34711274370979E-04
 -0.00000000000000E+00 -0.00000000000000E+00 -5.74001313266052E-03
 -0.00000000000000E+00 -0.00000000000000E+00  5.74001313266052E-03
 -0.00000000000000E+00 -0.00000000000000E+00  3.34711274370979E-04
 Reduced forces (fred)
  0.00000000000000E+00  0.00000000000000E+00  7.53661768513867E-03
  0.00000000000000E+00  0.00000000000000E+00  1.29246571003132E-01
  0.00000000000000E+00  0.00000000000000E+00 -1.29246571003132E-01
  0.00000000000000E+00  0.00000000000000E+00 -7.53661768513867E-03
 Total energy (etotal) [Ha]= -8.35581251663280E+00

 Difference of energy with previous step (new-old):
           Absolute (Ha)=-7.66836E-05
           Relative     =-9.17732E-06

--- Iteration: ( 5/10) Internal Cycle: (1/1)
--------------------------------------------------------------------------------

---SELF-CONSISTENT-FIELD CONVERGENCE--------------------------------------------

     iter   Etot(hartree)      deltaE(h)  residm     vres2    diffor    maxfor
 ETOT  1  -8.3558468995793    -8.356E+00 6.734E-06 8.434E-01 1.637E-03 5.449E-03
 ETOT  2  -8.3561735440929    -3.266E-04 1.294E-07 4.181E-02 3.844E-04 5.065E-03
 ETOT  3  -8.3561839260954    -1.038E-05 1.353E-07 1.878E-03 5.294E-05 5.118E-03
 ETOT  4  -8.3561844686450    -5.425E-07 8.948E-09 1.560E-06 9.322E-06 5.110E-03
 ETOT  5  -8.3561844702509    -1.606E-09 3.050E-09 2.690E-08 9.840E-07 5.110E-03

 At SCF step    5, forces are converged : 
  for the second time, max diff in force=  9.840E-07 < toldff=  5.000E-05

 Cartesian components of stress tensor (hartree/bohr^3)
  sigma(1 1)=  1.76273316E-04  sigma(3 2)=  0.00000000E+00
  sigma(2 2)=  1.76273316E-04  sigma(3 1)=  0.00000000E+00
  sigma(3 3)=  4.93673085E-05  sigma(2 1)=  0.00000000E+00


---OUTPUT-----------------------------------------------------------------------

 Cartesian coordinates (xcart) [bohr]
  0.00000000000000E+00  0.00000000000000E+00 -2.72808897146826E-01
  0.00000000000000E+00  3.75279545000000E+00  3.71468632687231E+00
  0.00000000000000E+00  0.00000000000000E+00  7.54370002312770E+00
  0.00000000000000E+00  3.75279545000000E+00  1.15311952471469E+01
 Reduced coordinates (xred)
  0.00000000000000E+00  0.00000000000000E+00 -1.21158081036554E-02
 -5.00000000000000E-01  5.00000000000000E-01  1.64974189523719E-01
  0.00000000000000E+00  0.00000000000000E+00  3.35025810476281E-01
 -5.00000000000000E-01  5.00000000000000E-01  5.12115808103657E-01
 Cartesian forces (fcart) [Ha/bohr]; max,rms= 5.11014E-03 2.13832E-03 (free atoms)
 -0.00000000000000E+00 -0.00000000000000E+00  1.14934113906987E-03
 -0.00000000000000E+00 -0.00000000000000E+00 -5.11013779280423E-03
 -0.00000000000000E+00 -0.00000000000000E+00  5.11013779280423E-03
 -0.00000000000000E+00 -0.00000000000000E+00 -1.14934113906987E-03
 Reduced forces (fred)
  0.00000000000000E+00  0.00000000000000E+00 -2.58794531831953E-02
  0.00000000000000E+00  0.00000000000000E+00  1.15063811146252E-01
  0.00000000000000E+00  0.00000000000000E+00 -1.15063811146253E-01
  0.00000000000000E+00  0.00000000000000E+00  2.58794531831953E-02
 Total energy (etotal) [Ha]= -8.35618447025093E+00

 Difference of energy with previous step (new-old):
           Absolute (Ha)=-3.71954E-04
           Relative     =-4.45134E-05

--- Iteration: ( 6/10) Internal Cycle: (1/1)
--------------------------------------------------------------------------------

---SELF-CONSISTENT-FIELD CONVERGENCE--------------------------------------------

     iter   Etot(hartree)      deltaE(h)  residm     vres2    diffor    maxfor
 ETOT  1  -8.3563753898928    -8.356E+00 2.882E-06 6.434E-02 1.737E-03 3.373E-03
 ETOT  2  -8.3564120202019    -3.663E-05 8.997E-08 2.616E-03 1.023E-04 3.294E-03
 ETOT  3  -8.3564126723387    -6.521E-07 4.042E-08 1.961E-04 1.221E-05 3.304E-03
 ETOT  4  -8.3564127290716    -5.673E-08 5.380E-09 1.031E-06 3.668E-06 3.301E-03

 At SCF step    4, forces are converged : 
  for the second time, max diff in force=  3.668E-06 < toldff=  5.000E-05

 Cartesian components of stress tensor (hartree/bohr^3)
  sigma(1 1)=  1.84196500E-04  sigma(3 2)=  0.00000000E+00
  sigma(2 2)=  1.84196500E-04  sigma(3 1)=  0.00000000E+00
  sigma(3 3)=  6.60308670E-05  sigma(2 1)=  0.00000000E+00


---OUTPUT-----------------------------------------------------------------------

 Cartesian coordinates (xcart) [bohr]
  0.00000000000000E+00  0.00000000000000E+00 -3.24626800626950E-01
  0.00000000000000E+00  3.75279545000000E+00  3.67204979124376E+00
  0.00000000000000E+00  0.00000000000000E+00  7.58633655875627E+00
  0.00000000000000E+00  3.75279545000000E+00  1.15830131506270E+01
 Reduced coordinates (xred)
  0.00000000000000E+00  0.00000000000000E+00 -1.44171105225462E-02
 -5.00000000000000E-01  5.00000000000000E-01  1.63080643934544E-01
  0.00000000000000E+00  0.00000000000000E+00  3.36919356065457E-01
 -5.00000000000000E-01  5.00000000000000E-01  5.14417110522548E-01
 Cartesian forces (fcart) [Ha/bohr]; max,rms= 3.30144E-03 1.45362E-03 (free atoms)
 -0.00000000000000E+00 -0.00000000000000E+00  1.33364286386306E-03
 -0.00000000000000E+00 -0.00000000000000E+00 -3.30143530706257E-03
 -0.00000000000000E+00 -0.00000000000000E+00  3.30143530706257E-03
 -0.00000000000000E+00 -0.00000000000000E+00 -1.33364286386306E-03
 Reduced forces (fred)
  0.00000000000000E+00  0.00000000000000E+00 -3.00293332285815E-02
  0.00000000000000E+00  0.00000000000000E+00  7.43376683928827E-02
  0.00000000000000E+00  0.00000000000000E+00 -7.43376683928827E-02
  0.00000000000000E+00  0.00000000000000E+00  3.00293332285815E-02
 Total energy (etotal) [Ha]= -8.35641272907164E+00

 Difference of energy with previous step (new-old):
           Absolute (Ha)=-2.28259E-04
           Relative     =-2.73158E-05

--- Iteration: ( 7/10) Internal Cycle: (1/1)
--------------------------------------------------------------------------------

---SELF-CONSISTENT-FIELD CONVERGENCE--------------------------------------------

     iter   Etot(hartree)      deltaE(h)  residm     vres2    diffor    maxfor
 ETOT  1  -8.3564969564603    -8.356E+00 5.990E-07 1.567E-01 2.361E-03 9.403E-04
 ETOT  2  -8.3565396291105    -4.267E-05 3.624E-08 7.270E-03 1.223E-04 1.026E-03
 ETOT  3  -8.3565415940028    -1.965E-06 1.284E-08 3.603E-05 1.958E-05 1.007E-03
 ETOT  4  -8.3565416091778    -1.518E-08 5.761E-10 7.397E-07 1.169E-06 1.006E-03

 At SCF step    4, forces are converged : 
  for the second time, max diff in force=  1.169E-06 < toldff=  5.000E-05

 Cartesian components of stress tensor (hartree/bohr^3)
  sigma(1 1)=  1.88446110E-04  sigma(3 2)=  0.00000000E+00
  sigma(2 2)=  1.88446110E-04  sigma(3 1)=  0.00000000E+00
  sigma(3 3)=  6.87322449E-05  sigma(2 1)=  0.00000000E+00


---OUTPUT-----------------------------------------------------------------------

 Cartesian coordinates (xcart) [bohr]
  0.00000000000000E+00  0.00000000000000E+00 -3.41262817788009E-01
  0.00000000000000E+00  3.75279545000000E+00  3.63412805409652E+00
  0.00000000000000E+00  0.00000000000000E+00  7.62425829590348E+00
  0.00000000000000E+00  3.75279545000000E+00  1.15996491677880E+01
 Reduced coordinates (xred)
  0.00000000000000E+00  0.00000000000000E+00 -1.51559383014072E-02
 -5.00000000000000E-01  5.00000000000000E-01  1.61396488853685E-01
  0.00000000000000E+00  0.00000000000000E+00  3.38603511146315E-01
 -5.00000000000000E-01  5.00000000000000E-01  5.15155938301407E-01
 Cartesian forces (fcart) [Ha/bohr]; max,rms= 1.00574E-03 4.93771E-04 (free atoms)
 -0.00000000000000E+00 -0.00000000000000E+00  6.71817658490131E-04
 -0.00000000000000E+00 -0.00000000000000E+00 -1.00574265660686E-03
 -0.00000000000000E+00 -0.00000000000000E+00  1.00574265660686E-03
 -0.00000000000000E+00 -0.00000000000000E+00 -6.71817658490131E-04
 Reduced forces (fred)
  0.00000000000000E+00  0.00000000000000E+00 -1.51271655120685E-02
  0.00000000000000E+00  0.00000000000000E+00  2.26460787935108E-02
  0.00000000000000E+00  0.00000000000000E+00 -2.26460787935108E-02
  0.00000000000000E+00  0.00000000000000E+00  1.51271655120685E-02
 Total energy (etotal) [Ha]= -8.35654160917783E+00

 Difference of energy with previous step (new-old):
           Absolute (Ha)=-1.28880E-04
           Relative     =-1.54228E-05

--- Iteration: ( 8/10) Internal Cycle: (1/1)
--------------------------------------------------------------------------------

---SELF-CONSISTENT-FIELD CONVERGENCE--------------------------------------------

     iter   Etot(hartree)      deltaE(h)  residm     vres2    diffor    maxfor
 ETOT  1  -8.3565543605975    -8.357E+00 9.938E-10 1.520E-02 9.511E-04 1.414E-04
 ETOT  2  -8.3565585880905    -4.227E-06 8.106E-10 8.721E-04 2.974E-05 1.302E-04
 ETOT  3  -8.3565588272761    -2.392E-07 1.314E-09 5.403E-06 6.310E-06 1.365E-04

 At SCF step    3, forces are converged : 
  for the second time, max diff in force=  6.310E-06 < toldff=  5.000E-05

 Cartesian components of stress tensor (hartree/bohr^3)
  sigma(1 1)=  1.88384168E-04  sigma(3 2)=  0.00000000E+00
  sigma(2 2)=  1.88384168E-04  sigma(3 1)=  0.00000000E+00
  sigma(3 3)=  6.40394050E-05  sigma(2 1)=  0.00000000E+00


---OUTPUT-----------------------------------------------------------------------

 Cartesian coordinates (xcart) [bohr]
  0.00000000000000E+00  0.00000000000000E+00 -3.32258707432962E-01
  0.00000000000000E+00  3.75279545000000E+00  3.62497874947301E+00
  0.00000000000000E+00  0.00000000000000E+00  7.63340760052697E+00
  0.00000000000000E+00  3.75279545000000E+00  1.15906450574329E+01
 Reduced coordinates (xred)
  0.00000000000000E+00  0.00000000000000E+00 -1.47560537142591E-02
 -5.00000000000000E-01  5.00000000000000E-01  1.60990155994825E-01
  0.00000000000000E+00  0.00000000000000E+00  3.39009844005175E-01
 -5.00000000000000E-01  5.00000000000000E-01  5.14756053714258E-01
 Cartesian forces (fcart) [Ha/bohr]; max,rms= 1.36515E-04 6.44545E-05 (free atoms)
 -0.00000000000000E+00 -0.00000000000000E+00  1.36515249734300E-04
 -0.00000000000000E+00 -0.00000000000000E+00 -7.93085526477040E-05
 -0.00000000000000E+00 -0.00000000000000E+00  7.93085526477040E-05
 -0.00000000000000E+00 -0.00000000000000E+00 -1.36515249734300E-04
 Reduced forces (fred)
  0.00000000000000E+00  0.00000000000000E+00 -3.07388284835096E-03
  0.00000000000000E+00  0.00000000000000E+00  1.78577265313433E-03
  0.00000000000000E+00  0.00000000000000E+00 -1.78577265313433E-03
  0.00000000000000E+00  0.00000000000000E+00  3.07388284835096E-03
 Total energy (etotal) [Ha]= -8.35655882727608E+00

 Difference of energy with previous step (new-old):
           Absolute (Ha)=-1.72181E-05
           Relative     =-2.06043E-06

 At Broyd/MD step   8, gradients are converged : 
  max grad (force/stress) = 1.3652E-04 < tolmxf= 5.0000E-04 ha/bohr (free atoms)

================================================================================

 ----iterations are completed or convergence reached----

 Mean square residual over all n,k,spin=   5.0951E-10; max=  1.3139E-09
   0.0000  0.1250  0.0000    1  1.31391E-09 kpt; spin; max resid(k); each band:
  4.92E-10 5.11E-10 1.12E-09 1.04E-09 1.31E-09 5.63E-10 3.01E-11 7.90E-10
   0.0000  0.3750  0.0000    1  1.07867E-09 kpt; spin; max resid(k); each band:
  4.91E-10 4.97E-10 1.08E-09 4.83E-10 2.19E-11 5.05E-10 4.90E-10 6.00E-10
   0.1250  0.2500  0.0000    1  1.09092E-09 kpt; spin; max resid(k); each band:
  4.91E-10 5.03E-10 1.09E-09 7.74E-10 6.08E-10 2.76E-10 4.40E-12 5.39E-10
   0.1250  0.5000  0.0000    1  5.25478E-10 kpt; spin; max resid(k); each band:
  4.92E-10 4.92E-10 4.81E-10 4.81E-10 5.25E-10 5.25E-10 5.00E-10 5.00E-10
   0.2500  0.3750  0.0000    1  1.07309E-09 kpt; spin; max resid(k); each band:
  4.89E-10 4.95E-10 1.07E-09 4.82E-10 1.93E-11 5.02E-10 4.88E-10 5.96E-10
   0.3750  0.5000  0.0000    1  4.93841E-10 kpt; spin; max resid(k); each band:
  4.87E-10 4.87E-10 1.07E-11 1.07E-11 4.94E-10 4.94E-10 1.00E-11 1.00E-11
 reduced coordinates (array xred) for    4 atoms
       0.000000000000      0.000000000000     -0.014756053714
      -0.500000000000      0.500000000000      0.160990155995
       0.000000000000      0.000000000000      0.339009844005
      -0.500000000000      0.500000000000      0.514756053714
 rms dE/dt=  1.4513E-03; max dE/dt=  3.0739E-03; dE/dt below (all hartree)
    1       0.000000000000      0.000000000000     -0.003073882848
    2       0.000000000000      0.000000000000      0.001785772653
    3       0.000000000000      0.000000000000     -0.001785772653
    4       0.000000000000      0.000000000000      0.003073882848

 cartesian coordinates (angstrom) at end:
    1      0.00000000000000     0.00000000000000    -0.17582373532910
    2      0.00000000000000     1.98589382064025     1.91825613584420
    3      0.00000000000000     0.00000000000000     4.03942532607655
    4      0.00000000000000     1.98589382064025     6.13350519724984

 cartesian forces (hartree/bohr) at end:
    1     -0.00000000000000    -0.00000000000000     0.00013651524973
    2     -0.00000000000000    -0.00000000000000    -0.00007930855265
    3     -0.00000000000000    -0.00000000000000     0.00007930855265
    4     -0.00000000000000    -0.00000000000000    -0.00013651524973
 frms,max,avg= 6.4454454E-05 1.3651525E-04   0.000E+00  0.000E+00  0.000E+00 h/b

 cartesian forces (eV/Angstrom) at end:
    1     -0.00000000000000    -0.00000000000000     0.00701989579854
    2     -0.00000000000000    -0.00000000000000    -0.00407820940593
    3     -0.00000000000000    -0.00000000000000     0.00407820940593
    4     -0.00000000000000    -0.00000000000000    -0.00701989579854
 frms,max,avg= 3.3143810E-03 7.0198958E-03   0.000E+00  0.000E+00  0.000E+00 e/A
 length scales=  7.505590900000  7.505590900000  7.505590900000 bohr
              =  3.971787641281  3.971787641281  3.971787641281 angstroms
 prteigrs : about to open file tbase4_xo_DS2_EIG
 Fermi (or HOMO) energy (hartree) =   0.14406   Average Vxc (hartree)=  -0.28823
 Eigenvalues (hartree) for nkpt=   6  k points:
 kpt#   1, nband=  8, wtk=  0.12500, kpt=  0.0000  0.1250  0.0000 (reduced coord)
  -0.23665  -0.18940  -0.11481  -0.01312   0.06569   0.20826   0.25205   0.25923
      occupation numbers for kpt#   1
   2.00000   2.00000   2.00000   2.00000   2.04104   0.00453   0.00057   0.00026
 kpt#   2, nband=  8, wtk=  0.12500, kpt=  0.0000  0.3750  0.0000 (reduced coord)
  -0.15168  -0.10504  -0.03131   0.01423   0.05956   0.06914   0.13250   0.14540
      occupation numbers for kpt#   2
   2.00000   2.00000   2.00000   2.00013   2.02546   2.05221   1.34555   0.78491
 kpt#   3, nband=  8, wtk=  0.25000, kpt=  0.1250  0.2500  0.0000 (reduced coord)
  -0.19397  -0.14705  -0.07288   0.02840   0.10580   0.13347   0.17806   0.24145
      occupation numbers for kpt#   3
   2.00000   2.00000   2.00000   2.00092   2.09281   1.30364   0.03086   0.00151
 kpt#   4, nband=  8, wtk=  0.12500, kpt=  0.1250  0.5000  0.0000 (reduced coord)
  -0.06816  -0.06816  -0.02196  -0.02196   0.05051   0.05051   0.14991   0.14991
      occupation numbers for kpt#   4
   2.00000   2.00000   2.00000   2.00000   2.01126   2.01126   0.60657   0.60657
 kpt#   5, nband=  8, wtk=  0.25000, kpt=  0.2500  0.3750  0.0000 (reduced coord)
  -0.10973  -0.06343   0.00986   0.05310   0.09791   0.10963   0.16987   0.18531
      occupation numbers for kpt#   5
   2.00000   2.00000   2.00007   2.01441   2.13901   2.04454   0.10395   0.00569
 kpt#   6, nband=  8, wtk=  0.12500, kpt=  0.3750  0.5000  0.0000 (reduced coord)
   0.01253   0.01253   0.05774   0.05774   0.12911   0.12911   0.18389   0.18389
      occupation numbers for kpt#   6
   2.00010   2.00010   2.02183   2.02183   1.48687   1.48687   0.00862   0.00862
 Total charge density [el/Bohr^3]
,     Maximum=    3.3855E-02  at reduced coord.    0.5000    0.8333    0.5000
,Next maximum=    3.3855E-02  at reduced coord.    0.8333    0.5000    0.5000
,     Minimum=    6.2312E-04  at reduced coord.    0.0000    0.0000    0.7400
,Next minimum=    6.2312E-04  at reduced coord.    0.5000    0.5000    0.7600
,  Integrated=    1.2000E+01

--------------------------------------------------------------------------------
 Components of total free energy (in Hartree) :

    Kinetic energy  =  3.20656387468905E+00
    Hartree energy  =  4.56485798597354E+00
    XC energy       = -3.09388978385989E+00
    Ewald energy    = -4.76147041553844E+00
    PspCore energy  =  1.03159553001933E-01
    Loc. psp. energy= -1.01852922751345E+01
    NL   psp  energy=  1.81127134574987E+00
    >>>>> Internal E= -8.35479971511847E+00

    -kT*entropy     = -1.75911215760522E-03
    >>>>>>>>> Etotal= -8.35655882727608E+00

 Other information on the energy :
    Total energy(eV)= -2.27393529997681E+02 ; Band energy (Ha)=  -6.8026984395E-02
--------------------------------------------------------------------------------
 rms coord change=  6.4545E-03   atom, delta coord (reduced):
     1        0.000000000000      0.000000000000     -0.014756053714
     2        0.000000000000      0.000000000000     -0.005676510672
     3        0.000000000000      0.000000000000      0.005676510672
     4        0.000000000000      0.000000000000      0.014756053714

 Cartesian components of stress tensor (hartree/bohr^3)
  sigma(1 1)=  1.88384168E-04  sigma(3 2)=  0.00000000E+00
  sigma(2 2)=  1.88384168E-04  sigma(3 1)=  0.00000000E+00
  sigma(3 3)=  6.40394050E-05  sigma(2 1)=  0.00000000E+00

-Cartesian components of stress tensor (GPa)         [Pressure= -4.3230E+00 GPa]
- sigma(1 1)=  5.54245263E+00  sigma(3 2)=  0.00000000E+00
- sigma(2 2)=  5.54245263E+00  sigma(3 1)=  0.00000000E+00
- sigma(3 3)=  1.88410403E+00  sigma(2 1)=  0.00000000E+00

================================================================================
== DATASET  3 ==================================================================
-   nproc =    1

 Exchange-correlation functional for the present dataset will be:
  LDA: new Teter (4/93) with spin-polarized option - ixc=1
 Citation for XC functional:
  S. Goedecker, M. Teter, J. Huetter, PRB 54, 1703 (1996)

 Real(R)+Recip(G) space primitive vectors, cartesian coordinates (Bohr,Bohr^-1):
 R(1)=  3.7527955 -3.7527954  0.0000000  G(1)=  0.1332340 -0.1332340  0.0000000
 R(2)=  3.7527955  3.7527955  0.0000000  G(2)=  0.1332340  0.1332340  0.0000000
 R(3)=  0.0000000  0.0000000 26.2695682  G(3)=  0.0000000  0.0000000  0.0380669
 Unit cell volume ucvol=  7.3993354E+02 bohr^3
 Angles (23,13,12)=  9.00000000E+01  9.00000000E+01  9.00000000E+01 degrees

 getcut: wavevector=  0.0000  0.0000  0.0000  ngfft=  12  12  60
         ecut(hartree)=      6.000   => boxcut(ratio)=   2.05055
   1.02229304E+02                                ecore*ucvol(ha*bohr**3)
--------------------------------------------------------------------------------

P newkpt: treating     11 bands with npw=     498 for ikpt=   1 by node    0
P newkpt: treating     11 bands with npw=     522 for ikpt=   2 by node    0
P newkpt: treating     11 bands with npw=     510 for ikpt=   3 by node    0
P newkpt: treating     11 bands with npw=     532 for ikpt=   4 by node    0
P newkpt: treating     11 bands with npw=     528 for ikpt=   5 by node    0
P newkpt: treating     11 bands with npw=     532 for ikpt=   6 by node    0

_setup2: Arith. and geom. avg. npw (full set) are     520.000     519.866

================================================================================

=== [ionmov= 2] Broyden-Fletcher-Goldfard-Shanno method (forces)            
================================================================================

--- Iteration: ( 1/10) Internal Cycle: (1/1)
--------------------------------------------------------------------------------

---SELF-CONSISTENT-FIELD CONVERGENCE--------------------------------------------

     iter   Etot(hartree)      deltaE(h)  residm     vres2    diffor    maxfor
 ETOT  1  -10.295100462867    -1.030E+01 4.841E-03 7.837E+02 1.762E-02 1.762E-02
 ETOT  2  -10.444136279117    -1.490E-01 1.548E-04 5.098E+01 2.025E-02 2.629E-03
 ETOT  3  -10.453607336433    -9.471E-03 9.495E-05 8.319E-02 1.506E-03 2.212E-03
 ETOT  4  -10.453641087743    -3.375E-05 3.316E-05 5.620E-03 7.070E-05 2.282E-03
 ETOT  5  -10.453642168613    -1.081E-06 5.800E-06 3.121E-05 1.597E-05 2.266E-03
 ETOT  6  -10.453642176455    -7.842E-09 1.227E-05 7.002E-08 1.869E-06 2.265E-03

 At SCF step    6, forces are converged : 
  for the second time, max diff in force=  1.869E-06 < toldff=  5.000E-05

 Cartesian components of stress tensor (hartree/bohr^3)
  sigma(1 1)=  1.19363082E-04  sigma(3 2)=  0.00000000E+00
  sigma(2 2)=  1.19363082E-04  sigma(3 1)=  0.00000000E+00
  sigma(3 3)= -4.44156755E-05  sigma(2 1)=  0.00000000E+00


---OUTPUT-----------------------------------------------------------------------

 Cartesian coordinates (xcart) [bohr]
  0.00000000000000E+00  0.00000000000000E+00  0.00000000000000E+00
  0.00000000000000E+00  3.75279545000000E+00  3.75279545000000E+00
  0.00000000000000E+00  0.00000000000000E+00  7.50559090000000E+00
  0.00000000000000E+00  3.75279545000000E+00  1.12583863500000E+01
  0.00000000000000E+00  0.00000000000000E+00  1.50111818000000E+01
 Reduced coordinates (xred)
  0.00000000000000E+00  0.00000000000000E+00  0.00000000000000E+00
 -5.00000000000000E-01  5.00000000000000E-01  1.42857142857143E-01
  0.00000000000000E+00  0.00000000000000E+00  2.85714285714286E-01
 -5.00000000000000E-01  5.00000000000000E-01  4.28571428571429E-01
  0.00000000000000E+00  0.00000000000000E+00  5.71428571428571E-01
 Cartesian forces (fcart) [Ha/bohr]; max,rms= 2.26454E-03 9.14735E-04 (free atoms)
 -0.00000000000000E+00 -0.00000000000000E+00 -2.26454488229091E-03
 -0.00000000000000E+00 -0.00000000000000E+00 -1.07116489611541E-03
 -0.00000000000000E+00 -0.00000000000000E+00 -8.67361737988404E-20
 -0.00000000000000E+00 -0.00000000000000E+00  1.07116489611541E-03
 -0.00000000000000E+00 -0.00000000000000E+00  2.26454488229091E-03
 Reduced forces (fred)
  0.00000000000000E+00  0.00000000000000E+00  5.94886161140748E-02
  0.00000000000000E+00  0.00000000000000E+00  2.81390392383915E-02
  0.00000000000000E+00  0.00000000000000E+00  0.00000000000000E+00
  0.00000000000000E+00  0.00000000000000E+00 -2.81390392383915E-02
  0.00000000000000E+00  0.00000000000000E+00 -5.94886161140748E-02
 Total energy (etotal) [Ha]= -1.04536421764547E+01

--- Iteration: ( 2/10) Internal Cycle: (1/1)
--------------------------------------------------------------------------------

---SELF-CONSISTENT-FIELD CONVERGENCE--------------------------------------------

     iter   Etot(hartree)      deltaE(h)  residm     vres2    diffor    maxfor
 ETOT  1  -10.453653690514    -1.045E+01 4.440E-06 3.923E-03 4.327E-05 2.221E-03
 ETOT  2  -10.453654627328    -9.368E-07 1.414E-06 8.226E-05 2.054E-05 2.226E-03
 ETOT  3  -10.453654643681    -1.635E-08 1.670E-07 6.047E-07 2.255E-06 2.227E-03

 At SCF step    3, forces are converged : 
  for the second time, max diff in force=  2.255E-06 < toldff=  5.000E-05

 Cartesian components of stress tensor (hartree/bohr^3)
  sigma(1 1)=  1.19687828E-04  sigma(3 2)=  0.00000000E+00
  sigma(2 2)=  1.19687828E-04  sigma(3 1)=  0.00000000E+00
  sigma(3 3)= -4.36881499E-05  sigma(2 1)=  0.00000000E+00


---OUTPUT-----------------------------------------------------------------------

 Cartesian coordinates (xcart) [bohr]
  0.00000000000000E+00  0.00000000000000E+00 -2.26454488229091E-03
  0.00000000000000E+00  3.75279545000000E+00  3.75172428510388E+00
  0.00000000000000E+00  0.00000000000000E+00  7.50559090000000E+00
  0.00000000000000E+00  3.75279545000000E+00  1.12594575148961E+01
  0.00000000000000E+00  0.00000000000000E+00  1.50134463448823E+01
 Reduced coordinates (xred)
  0.00000000000000E+00  0.00000000000000E+00 -8.62041153231105E-05
 -5.00000000000000E-01  5.00000000000000E-01  1.42816366971906E-01
  0.00000000000000E+00  0.00000000000000E+00  2.85714285714286E-01
 -5.00000000000000E-01  5.00000000000000E-01  4.28612204456666E-01
  0.00000000000000E+00  0.00000000000000E+00  5.71514775543895E-01
 Cartesian forces (fcart) [Ha/bohr]; max,rms= 2.22723E-03 9.02650E-04 (free atoms)
 -0.00000000000000E+00 -0.00000000000000E+00 -2.22723049033751E-03
 -0.00000000000000E+00 -0.00000000000000E+00 -1.07251027740072E-03
 -0.00000000000000E+00 -0.00000000000000E+00 -0.00000000000000E+00
 -0.00000000000000E+00 -0.00000000000000E+00  1.07251027740072E-03
 -0.00000000000000E+00 -0.00000000000000E+00  2.22723049033751E-03
 Reduced forces (fred)
  0.00000000000000E+00  0.00000000000000E+00  5.85083831516792E-02
  0.00000000000000E+00  0.00000000000000E+00  2.81743818237536E-02
  0.00000000000000E+00  0.00000000000000E+00  0.00000000000000E+00
  0.00000000000000E+00  0.00000000000000E+00 -2.81743818237536E-02
  0.00000000000000E+00  0.00000000000000E+00 -5.85083831516792E-02
 Total energy (etotal) [Ha]= -1.04536546436814E+01

 Difference of energy with previous step (new-old):
           Absolute (Ha)=-1.24672E-05
           Relative     =-1.19262E-06

--- Iteration: ( 3/10) Internal Cycle: (1/1)
--------------------------------------------------------------------------------

---SELF-CONSISTENT-FIELD CONVERGENCE--------------------------------------------

     iter   Etot(hartree)      deltaE(h)  residm     vres2    diffor    maxfor
 ETOT  1  -10.451750257243    -1.045E+01 4.807E-05 1.004E+01 3.125E-03 1.973E-03
 ETOT  2  -10.454078825838    -2.329E-03 1.006E-05 2.955E-01 9.533E-04 1.020E-03
 ETOT  3  -10.454137212851    -5.839E-05 2.923E-05 3.445E-03 1.165E-04 1.136E-03
 ETOT  4  -10.454137944617    -7.318E-07 3.577E-06 3.706E-06 7.536E-06 1.129E-03
 ETOT  5  -10.454137946023    -1.405E-09 8.717E-06 4.980E-08 5.079E-07 1.129E-03

 At SCF step    5, forces are converged : 
  for the second time, max diff in force=  5.079E-07 < toldff=  5.000E-05

 Cartesian components of stress tensor (hartree/bohr^3)
  sigma(1 1)=  1.42700313E-04  sigma(3 2)=  0.00000000E+00
  sigma(2 2)=  1.42700313E-04  sigma(3 1)=  0.00000000E+00
  sigma(3 3)=  1.00087735E-05  sigma(2 1)=  0.00000000E+00


---OUTPUT-----------------------------------------------------------------------

 Cartesian coordinates (xcart) [bohr]
  0.00000000000000E+00  0.00000000000000E+00 -1.71151308874601E-01
  0.00000000000000E+00  3.75279545000000E+00  3.67040299715773E+00
  0.00000000000000E+00  0.00000000000000E+00  7.50559090000000E+00
  0.00000000000000E+00  3.75279545000000E+00  1.13407788028423E+01
  0.00000000000000E+00  0.00000000000000E+00  1.51823331088746E+01
 Reduced coordinates (xred)
  0.00000000000000E+00  0.00000000000000E+00 -6.51519308948371E-03
 -5.00000000000000E-01  5.00000000000000E-01  1.39720720805139E-01
  0.00000000000000E+00  0.00000000000000E+00  2.85714285714286E-01
 -5.00000000000000E-01  5.00000000000000E-01  4.31707850623432E-01
  0.00000000000000E+00  0.00000000000000E+00  5.77943764518056E-01
 Cartesian forces (fcart) [Ha/bohr]; max,rms= 1.12943E-03 4.33500E-04 (free atoms)
 -0.00000000000000E+00 -0.00000000000000E+00  3.65783962872081E-04
 -0.00000000000000E+00 -0.00000000000000E+00 -1.12943242870923E-03
 -0.00000000000000E+00 -0.00000000000000E+00  4.33680868994202E-20
 -0.00000000000000E+00 -0.00000000000000E+00  1.12943242870923E-03
 -0.00000000000000E+00 -0.00000000000000E+00 -3.65783962872081E-04
 Reduced forces (fred)
  0.00000000000000E+00  0.00000000000000E+00 -9.60898674084521E-03
  0.00000000000000E+00  0.00000000000000E+00  2.96697021567972E-02
  0.00000000000000E+00  0.00000000000000E+00  0.00000000000000E+00
  0.00000000000000E+00  0.00000000000000E+00 -2.96697021567972E-02
  0.00000000000000E+00  0.00000000000000E+00  9.60898674084521E-03
 Total energy (etotal) [Ha]= -1.04541379460226E+01

 Difference of energy with previous step (new-old):
           Absolute (Ha)=-4.83302E-04
           Relative     =-4.62318E-05

--- Iteration: ( 4/10) Internal Cycle: (1/1)
--------------------------------------------------------------------------------

---SELF-CONSISTENT-FIELD CONVERGENCE--------------------------------------------

     iter   Etot(hartree)      deltaE(h)  residm     vres2    diffor    maxfor
 ETOT  1  -10.454119138304    -1.045E+01 1.750E-06 9.834E-02 1.635E-04 1.143E-03
 ETOT  2  -10.454142754530    -2.362E-05 6.333E-07 2.445E-03 9.064E-05 1.052E-03
 ETOT  3  -10.454143243736    -4.892E-07 2.645E-07 2.057E-05 1.102E-05 1.063E-03
 ETOT  4  -10.454143248259    -4.523E-09 1.971E-07 3.308E-08 6.310E-07 1.063E-03

 At SCF step    4, forces are converged : 
  for the second time, max diff in force=  6.310E-07 < toldff=  5.000E-05

 Cartesian components of stress tensor (hartree/bohr^3)
  sigma(1 1)=  1.44227030E-04  sigma(3 2)=  0.00000000E+00
  sigma(2 2)=  1.44227030E-04  sigma(3 1)=  0.00000000E+00
  sigma(3 3)=  1.35979846E-05  sigma(2 1)=  0.00000000E+00


---OUTPUT-----------------------------------------------------------------------

 Cartesian coordinates (xcart) [bohr]
  0.00000000000000E+00  0.00000000000000E+00 -1.82902926903969E-01
  0.00000000000000E+00  3.75279545000000E+00  3.66335327313133E+00
  0.00000000000000E+00  0.00000000000000E+00  7.50559090000000E+00
  0.00000000000000E+00  3.75279545000000E+00  1.13478285268687E+01
  0.00000000000000E+00  0.00000000000000E+00  1.51940847269040E+01
 Reduced coordinates (xred)
  0.00000000000000E+00  0.00000000000000E+00 -6.96254029984763E-03
 -5.00000000000000E-01  5.00000000000000E-01  1.39452359940349E-01
  0.00000000000000E+00  0.00000000000000E+00  2.85714285714286E-01
 -5.00000000000000E-01  5.00000000000000E-01  4.31976211488222E-01
  0.00000000000000E+00  0.00000000000000E+00  5.78391111728420E-01
 Cartesian forces (fcart) [Ha/bohr]; max,rms= 1.06265E-03 4.28429E-04 (free atoms)
 -0.00000000000000E+00 -0.00000000000000E+00  4.97394219434024E-04
 -0.00000000000000E+00 -0.00000000000000E+00 -1.06265445488130E-03
 -0.00000000000000E+00 -0.00000000000000E+00  4.33680868994202E-20
 -0.00000000000000E+00 -0.00000000000000E+00  1.06265445488130E-03
 -0.00000000000000E+00 -0.00000000000000E+00 -4.97394219434024E-04
 Reduced forces (fred)
  0.00000000000000E+00  0.00000000000000E+00 -1.30663313448381E-02
  0.00000000000000E+00  0.00000000000000E+00  2.79154736224054E-02
  0.00000000000000E+00  0.00000000000000E+00  0.00000000000000E+00
  0.00000000000000E+00  0.00000000000000E+00 -2.79154736224053E-02
  0.00000000000000E+00  0.00000000000000E+00  1.30663313448381E-02
 Total energy (etotal) [Ha]= -1.04541432482589E+01

 Difference of energy with previous step (new-old):
           Absolute (Ha)=-5.30224E-06
           Relative     =-5.07190E-07

--- Iteration: ( 5/10) Internal Cycle: (1/1)
--------------------------------------------------------------------------------

---SELF-CONSISTENT-FIELD CONVERGENCE--------------------------------------------

     iter   Etot(hartree)      deltaE(h)  residm     vres2    diffor    maxfor
 ETOT  1  -10.454135906986    -1.045E+01 9.683E-08 4.763E-02 1.017E-04 9.610E-04
 ETOT  2  -10.454148488935    -1.258E-05 2.086E-08 1.116E-03 7.055E-05 8.904E-04
 ETOT  3  -10.454148723744    -2.348E-07 4.874E-08 1.110E-05 8.326E-06 8.988E-04
 ETOT  4  -10.454148726159    -2.415E-09 4.130E-09 2.456E-08 4.622E-07 8.983E-04

 At SCF step    4, forces are converged : 
  for the second time, max diff in force=  4.622E-07 < toldff=  5.000E-05

 Cartesian components of stress tensor (hartree/bohr^3)
  sigma(1 1)=  1.45393316E-04  sigma(3 2)=  0.00000000E+00
  sigma(2 2)=  1.45393316E-04  sigma(3 1)=  0.00000000E+00
  sigma(3 3)=  1.62553119E-05  sigma(2 1)=  0.00000000E+00


---OUTPUT-----------------------------------------------------------------------

 Cartesian coordinates (xcart) [bohr]
  0.00000000000000E+00  0.00000000000000E+00 -1.91651849270904E-01
  0.00000000000000E+00  3.75279545000000E+00  3.65594385622614E+00
  0.00000000000000E+00  0.00000000000000E+00  7.50559090000000E+00
  0.00000000000000E+00  3.75279545000000E+00  1.13552379437739E+01
  0.00000000000000E+00  0.00000000000000E+00  1.52028336492709E+01
 Reduced coordinates (xred)
  0.00000000000000E+00  0.00000000000000E+00 -7.29558431172396E-03
 -5.00000000000000E-01  5.00000000000000E-01  1.39170306696730E-01
  0.00000000000000E+00  0.00000000000000E+00  2.85714285714286E-01
 -5.00000000000000E-01  5.00000000000000E-01  4.32258264731842E-01
  0.00000000000000E+00  0.00000000000000E+00  5.78724155740296E-01
 Cartesian forces (fcart) [Ha/bohr]; max,rms= 8.98294E-04 3.82111E-04 (free atoms)
 -0.00000000000000E+00 -0.00000000000000E+00  5.36780166397508E-04
 -0.00000000000000E+00 -0.00000000000000E+00 -8.98293758533695E-04
 -0.00000000000000E+00 -0.00000000000000E+00 -0.00000000000000E+00
 -0.00000000000000E+00 -0.00000000000000E+00  8.98293758533695E-04
 -0.00000000000000E+00 -0.00000000000000E+00 -5.36780166397508E-04
 Reduced forces (fred)
  0.00000000000000E+00  0.00000000000000E+00 -1.41009831627477E-02
  0.00000000000000E+00  0.00000000000000E+00  2.35977891085205E-02
  0.00000000000000E+00  0.00000000000000E+00  0.00000000000000E+00
  0.00000000000000E+00  0.00000000000000E+00 -2.35977891085205E-02
  0.00000000000000E+00  0.00000000000000E+00  1.41009831627477E-02
 Total energy (etotal) [Ha]= -1.04541487261588E+01

 Difference of energy with previous step (new-old):
           Absolute (Ha)=-5.47790E-06
           Relative     =-5.23993E-07

--- Iteration: ( 6/10) Internal Cycle: (1/1)
--------------------------------------------------------------------------------

---SELF-CONSISTENT-FIELD CONVERGENCE--------------------------------------------

     iter   Etot(hartree)      deltaE(h)  residm     vres2    diffor    maxfor
 ETOT  1  -10.454149238131    -1.045E+01 1.150E-08 1.779E-02 3.192E-04 5.791E-04
 ETOT  2  -10.454156799326    -7.561E-06 2.441E-09 2.873E-04 6.016E-05 5.190E-04
 ETOT  3  -10.454156885456    -8.613E-08 8.005E-09 2.088E-06 6.302E-06 5.253E-04
 ETOT  4  -10.454156885975    -5.187E-10 2.991E-10 1.954E-08 4.161E-07 5.249E-04

 At SCF step    4, forces are converged : 
  for the second time, max diff in force=  4.161E-07 < toldff=  5.000E-05

 Cartesian components of stress tensor (hartree/bohr^3)
  sigma(1 1)=  1.46348419E-04  sigma(3 2)=  0.00000000E+00
  sigma(2 2)=  1.46348419E-04  sigma(3 1)=  0.00000000E+00
  sigma(3 3)=  1.82587253E-05  sigma(2 1)=  0.00000000E+00


---OUTPUT-----------------------------------------------------------------------

 Cartesian coordinates (xcart) [bohr]
  0.00000000000000E+00  0.00000000000000E+00 -1.98323910673233E-01
  0.00000000000000E+00  3.75279545000000E+00  3.64562022328004E+00
  0.00000000000000E+00  0.00000000000000E+00  7.50559090000000E+00
  0.00000000000000E+00  3.75279545000000E+00  1.13655615767200E+01
  0.00000000000000E+00  0.00000000000000E+00  1.52095057106733E+01
 Reduced coordinates (xred)
  0.00000000000000E+00  0.00000000000000E+00 -7.54956874588868E-03
 -5.00000000000000E-01  5.00000000000000E-01  1.38777318396079E-01
  0.00000000000000E+00  0.00000000000000E+00  2.85714285714286E-01
 -5.00000000000000E-01  5.00000000000000E-01  4.32651253032493E-01
  0.00000000000000E+00  0.00000000000000E+00  5.78978140174462E-01
 Cartesian forces (fcart) [Ha/bohr]; max,rms= 5.24856E-04 2.50394E-04 (free atoms)
 -0.00000000000000E+00 -0.00000000000000E+00  4.41311120454077E-04
 -0.00000000000000E+00 -0.00000000000000E+00 -5.24855551748693E-04
 -0.00000000000000E+00 -0.00000000000000E+00 -1.08420217248550E-20
 -0.00000000000000E+00 -0.00000000000000E+00  5.24855551748693E-04
 -0.00000000000000E+00 -0.00000000000000E+00 -4.41311120454077E-04
 Reduced forces (fred)
  0.00000000000000E+00  0.00000000000000E+00 -1.15930525541212E-02
  0.00000000000000E+00  0.00000000000000E+00  1.37877286855681E-02
  0.00000000000000E+00  0.00000000000000E+00  0.00000000000000E+00
  0.00000000000000E+00  0.00000000000000E+00 -1.37877286855681E-02
  0.00000000000000E+00  0.00000000000000E+00  1.15930525541212E-02
 Total energy (etotal) [Ha]= -1.04541568859751E+01

 Difference of energy with previous step (new-old):
           Absolute (Ha)=-8.15982E-06
           Relative     =-7.80533E-07

--- Iteration: ( 7/10) Internal Cycle: (1/1)
--------------------------------------------------------------------------------

---SELF-CONSISTENT-FIELD CONVERGENCE--------------------------------------------

     iter   Etot(hartree)      deltaE(h)  residm     vres2    diffor    maxfor
 ETOT  1  -10.454160152050    -1.045E+01 1.297E-08 3.230E-03 3.610E-04 2.372E-04
 ETOT  2  -10.454162520020    -2.368E-06 7.314E-10 7.024E-05 3.135E-05 2.059E-04
 ETOT  3  -10.454162542695    -2.268E-08 6.803E-10 1.713E-07 3.122E-06 2.090E-04

 At SCF step    3, forces are converged : 
  for the second time, max diff in force=  3.122E-06 < toldff=  5.000E-05

 Cartesian components of stress tensor (hartree/bohr^3)
  sigma(1 1)=  1.46101205E-04  sigma(3 2)=  0.00000000E+00
  sigma(2 2)=  1.46101205E-04  sigma(3 1)=  0.00000000E+00
  sigma(3 3)=  1.74409788E-05  sigma(2 1)=  0.00000000E+00


---OUTPUT-----------------------------------------------------------------------

 Cartesian coordinates (xcart) [bohr]
  0.00000000000000E+00  0.00000000000000E+00 -1.95666741145862E-01
[...]
  -0.14247  -0.10984  -0.05516   0.01572   0.02335   0.05536   0.10079   0.11163
   0.16818   0.18519   0.25987
      occupation numbers for kpt#   2
   2.00000   2.00000   2.00000   2.00000   2.00001   2.00138   2.08349   2.12830
   0.82598   0.25416   0.00227
 kpt#   3, nband= 11, wtk=  0.25000, kpt=  0.1250  0.2500  0.0000 (reduced coord)
  -0.18478  -0.15193  -0.09687  -0.02545   0.06225   0.13485   0.14272   0.17378
   0.22421   0.23575   0.29434
      occupation numbers for kpt#   3
   2.00000   2.00000   2.00000   2.00000   2.00316   2.02096   1.84125   0.60245
   0.00198   0.00512   0.00006
 kpt#   4, nband= 11, wtk=  0.12500, kpt=  0.1250  0.5000  0.0000 (reduced coord)
  -0.05961  -0.05818  -0.02941  -0.02392   0.02635   0.02838   0.09279   0.10200
   0.17325   0.19795   0.24184
      occupation numbers for kpt#   4
   2.00000   2.00000   2.00000   2.00000   2.00002   2.00003   2.05183   2.08876
   0.62243   0.05793   0.00514
 kpt#   5, nband= 11, wtk=  0.25000, kpt=  0.2500  0.3750  0.0000 (reduced coord)
  -0.10054  -0.06816  -0.01382   0.05653   0.06226   0.09390   0.14084   0.14956
   0.20749   0.22220   0.23368
      occupation numbers for kpt#   5
   2.00000   2.00000   2.00000   2.00160   2.00316   2.05578   1.89212   1.61515
   0.00898   0.00121   0.00485
 kpt#   6, nband= 11, wtk=  0.12500, kpt=  0.3750  0.5000  0.0000 (reduced coord)
   0.02111   0.02239   0.05071   0.05579   0.10437   0.10835   0.17157   0.17836
   0.19170   0.19444   0.22023
      occupation numbers for kpt#   6
   2.00001   2.00001   2.00076   2.00146   2.09917   2.11610   0.68711   0.44308
   0.13073   0.09388   0.00057
 Total charge density [el/Bohr^3]
,     Maximum=    3.4089E-02  at reduced coord.    0.0000    0.6667    0.5667
,Next maximum=    3.4089E-02  at reduced coord.    0.0000    0.3333    0.5667
,     Minimum=    2.7645E-04  at reduced coord.    0.5000    0.5000    0.7833
,Next minimum=    2.8363E-04  at reduced coord.    0.5000    0.4167    0.7833
,  Integrated=    1.5000E+01

--------------------------------------------------------------------------------
 Components of total free energy (in Hartree) :

    Kinetic energy  =  4.12798523827166E+00
    Hartree energy  =  7.04799842886337E+00
    XC energy       = -3.92731384476682E+00
    Ewald energy    = -4.89902241143105E+00
    PspCore energy  =  1.38160115627589E-01
    Loc. psp. energy= -1.52057096434846E+01
    NL   psp  energy=  2.26626731856436E+00
    >>>>> Internal E= -1.04516347983555E+01

    -kT*entropy     = -2.52774433918638E-03
    >>>>>>>>> Etotal= -1.04541625426947E+01

 Other information on the energy :
    Total energy(eV)= -2.84472229884100E+02 ; Band energy (Ha)=   1.6831430949E-01
--------------------------------------------------------------------------------
 rms coord change=  3.1416E-03   atom, delta coord (reduced):
     1        0.000000000000      0.000000000000     -0.007448418643
     2        0.000000000000      0.000000000000     -0.004306151684
     3        0.000000000000      0.000000000000     -0.000000000000
     4        0.000000000000      0.000000000000      0.004306151684
     5        0.000000000000      0.000000000000      0.007448418643

 Cartesian components of stress tensor (hartree/bohr^3)
  sigma(1 1)=  1.46101205E-04  sigma(3 2)=  0.00000000E+00
  sigma(2 2)=  1.46101205E-04  sigma(3 1)=  0.00000000E+00
  sigma(3 3)=  1.74409788E-05  sigma(2 1)=  0.00000000E+00

-Cartesian components of stress tensor (GPa)         [Pressure= -3.0367E+00 GPa]
- sigma(1 1)=  4.29844514E+00  sigma(3 2)=  0.00000000E+00
- sigma(2 2)=  4.29844514E+00  sigma(3 1)=  0.00000000E+00
- sigma(3 3)=  5.13131227E-01  sigma(2 1)=  0.00000000E+00

== END DATASET(S) ==============================================================
================================================================================
  
 -outvars: echo values of variables after computation  --------
            acell      7.5055909000E+00  7.5055909000E+00  7.5055909000E+00 Bohr
              amu      2.69815390E+01
      chksymbreak           0
             ecut      6.00000000E+00 Hartree
           etotal1    -6.2546990353E+00
           etotal2    -8.3565588273E+00
           etotal3    -1.0454162543E+01
            fcart1    -0.0000000000E+00 -0.0000000000E+00 -2.0438250776E-04
                      -0.0000000000E+00 -0.0000000000E+00 -0.0000000000E+00
                      -0.0000000000E+00 -0.0000000000E+00  2.0438250776E-04
            fcart2    -0.0000000000E+00 -0.0000000000E+00  1.3651524973E-04
                      -0.0000000000E+00 -0.0000000000E+00 -7.9308552648E-05
                      -0.0000000000E+00 -0.0000000000E+00  7.9308552648E-05
                      -0.0000000000E+00 -0.0000000000E+00 -1.3651524973E-04
            fcart3    -0.0000000000E+00 -0.0000000000E+00  2.0897904050E-04
                      -0.0000000000E+00 -0.0000000000E+00 -1.3594202171E-04
                      -0.0000000000E+00 -0.0000000000E+00 -5.4210108624E-21
                      -0.0000000000E+00 -0.0000000000E+00  1.3594202171E-04
                      -0.0000000000E+00 -0.0000000000E+00 -2.0897904050E-04
           ionmov           2
           iprcel          45
           jdtset        1    2    3
              kpt      0.00000000E+00  1.25000000E-01  0.00000000E+00
                       0.00000000E+00  3.75000000E-01  0.00000000E+00
                       1.25000000E-01  2.50000000E-01  0.00000000E+00
                       1.25000000E-01  5.00000000E-01  0.00000000E+00
                       2.50000000E-01  3.75000000E-01  0.00000000E+00
                       3.75000000E-01  5.00000000E-01  0.00000000E+00
         kptrlatt        4   -4    0      4    4    0      0    0    1
          kptrlen      3.00223636E+01
P           mkmem           6
            natom1          3
            natom2          4
            natom3          5
            nband1          7
            nband2          8
            nband3         11
           ndtset           3
            ngfft1         12      12      45
            ngfft2         12      12      50
            ngfft3         12      12      60
             nkpt           6
            nstep          10
             nsym          16
            ntime          10
           ntypat           1
              occ1     2.000000  2.000000  2.000000  2.133176  0.002909  0.000194
                       0.000000
                       2.000000  2.000000  2.000575  2.017124  2.122023  0.101426
                       0.005174
                       2.000000  2.000000  2.000123  1.490653  0.862857  0.004847
                       0.001182
                       2.000000  2.000000  2.000296  2.000468  1.674885  0.566058
                       0.002936
                       2.000000  2.000000  2.034894  2.141676  1.009535  0.004666
                       0.002527
                       2.000340  2.000605  2.130581  2.129681  0.000714  0.001600
                       0.003313
              occ2     2.000000  2.000000  2.000000  2.000001  2.041039  0.004533
                       0.000568  0.000260
                       2.000000  2.000000  2.000000  2.000129  2.025459  2.052215
                       1.345553  0.784912
                       2.000000  2.000000  2.000000  2.000922  2.092805  1.303643
                       0.030864  0.001512
                       2.000000  2.000000  2.000000  2.000000  2.011264  2.011264
                       0.606571  0.606571
                       2.000000  2.000000  2.000067  2.014414  2.139006  2.044544
                       0.103947  0.005686
                       2.000100  2.000100  2.021827  2.021827  1.486873  1.486873
                       0.008619  0.008619
              occ3     2.000000  2.000000  2.000000  2.000000  2.000009  2.060723
                       0.126790  0.002070  0.000123  0.000000  0.000000
                       2.000000  2.000000  2.000000  2.000003  2.000013  2.001385
                       2.083493  2.128299  0.825984  0.254164  0.002269
                       2.000000  2.000000  2.000000  2.000000  2.003155  2.020958
                       1.841247  0.602447  0.001978  0.005119  0.000064
                       2.000000  2.000000  2.000000  2.000000  2.000021  2.000029
                       2.051828  2.088759  0.622428  0.057929  0.005141
                       2.000000  2.000000  2.000000  2.001600  2.003160  2.055782
                       1.892119  1.615150  0.008980  0.001215  0.004852
                       2.000009  2.000011  2.000765  2.001461  2.099174  2.116102
                       0.687114  0.443077  0.130730  0.093883  0.000567
           occopt           4
        optforces           1
            rprim1     5.0000000000E-01 -5.0000000000E-01  0.0000000000E+00
                       5.0000000000E-01  5.0000000000E-01  0.0000000000E+00
                       0.0000000000E+00  0.0000000000E+00  2.5000000000E+00
            rprim2     5.0000000000E-01 -5.0000000000E-01  0.0000000000E+00
                       5.0000000000E-01  5.0000000000E-01  0.0000000000E+00
                       0.0000000000E+00  0.0000000000E+00  3.0000000000E+00
            rprim3     5.0000000000E-01 -5.0000000000E-01  0.0000000000E+00
                       5.0000000000E-01  5.0000000000E-01  0.0000000000E+00
                       0.0000000000E+00  0.0000000000E+00  3.5000000000E+00
           shiftk     -5.00000000E-01  5.00000000E-01  0.00000000E+00
          spgroup1        123
          spgroup2        129
          spgroup3        123
           strten1     1.7074847628E-04  1.7074847628E-04 -1.0117359546E-06
                       0.0000000000E+00  0.0000000000E+00  0.0000000000E+00
           strten2     1.8838416775E-04  1.8838416775E-04  6.4039404977E-05
                       0.0000000000E+00  0.0000000000E+00  0.0000000000E+00
           strten3     1.4610120524E-04  1.4610120524E-04  1.7440978829E-05
                       0.0000000000E+00  0.0000000000E+00  0.0000000000E+00
           symrel      1  0  0   0  1  0   0  0  1      -1  0  0   0 -1  0   0  0 -1
                      -1  0  0   0  1  0   0  0 -1       1  0  0   0 -1  0   0  0  1
                      -1  0  0   0 -1  0   0  0  1       1  0  0   0  1  0   0  0 -1
                       1  0  0   0 -1  0   0  0 -1      -1  0  0   0  1  0   0  0  1
                       0  1  0   1  0  0   0  0  1       0 -1  0  -1  0  0   0  0 -1
                       0 -1  0   1  0  0   0  0 -1       0  1  0  -1  0  0   0  0  1
                       0 -1  0  -1  0  0   0  0  1       0  1  0   1  0  0   0  0 -1
                       0  1  0  -1  0  0   0  0 -1       0 -1  0   1  0  0   0  0  1
            tnons1     0.0000000  0.0000000  0.0000000     0.0000000  0.0000000  0.4000000
                       0.0000000  0.0000000  0.4000000     0.0000000  0.0000000  0.0000000
                       0.0000000  0.0000000  0.0000000     0.0000000  0.0000000  0.4000000
                       0.0000000  0.0000000  0.4000000     0.0000000  0.0000000  0.0000000
                       0.0000000  0.0000000  0.0000000     0.0000000  0.0000000  0.4000000
                       0.0000000  0.0000000  0.4000000     0.0000000  0.0000000  0.0000000
                       0.0000000  0.0000000  0.0000000     0.0000000  0.0000000  0.4000000
                       0.0000000  0.0000000  0.4000000     0.0000000  0.0000000  0.0000000
            tnons2     0.0000000  0.0000000  0.0000000     0.5000000  0.5000000  0.5000000
                       0.5000000  0.5000000  0.5000000     0.0000000  0.0000000  0.0000000
                       0.0000000  0.0000000  0.0000000     0.5000000  0.5000000  0.5000000
                       0.5000000  0.5000000  0.5000000     0.0000000  0.0000000  0.0000000
                       0.0000000  0.0000000  0.0000000     0.5000000  0.5000000  0.5000000
                       0.5000000  0.5000000  0.5000000     0.0000000  0.0000000  0.0000000
                       0.0000000  0.0000000  0.0000000     0.5000000  0.5000000  0.5000000
                       0.5000000  0.5000000  0.5000000     0.0000000  0.0000000  0.0000000
            tnons3     0.0000000  0.0000000  0.0000000     0.0000000  0.0000000 -0.4285714
                       0.0000000  0.0000000 -0.4285714     0.0000000  0.0000000  0.0000000
                       0.0000000  0.0000000  0.0000000     0.0000000  0.0000000 -0.4285714
                       0.0000000  0.0000000 -0.4285714     0.0000000  0.0000000  0.0000000
                       0.0000000  0.0000000  0.0000000     0.0000000  0.0000000 -0.4285714
                       0.0000000  0.0000000 -0.4285714     0.0000000  0.0000000  0.0000000
                       0.0000000  0.0000000  0.0000000     0.0000000  0.0000000 -0.4285714
                       0.0000000  0.0000000 -0.4285714     0.0000000  0.0000000  0.0000000
           toldff      5.00000000E-05
           tolmxf      5.00000000E-04
            typat1     1  1  1
            typat2     1  1  1  1
            typat3     1  1  1  1  1
              wtk        0.12500    0.12500    0.25000    0.12500    0.25000    0.12500
           xangst1     0.0000000000E+00  0.0000000000E+00 -8.8841339513E-02
                       0.0000000000E+00  1.9858938206E+00  1.9858938206E+00
                       0.0000000000E+00  0.0000000000E+00  4.0606289808E+00
           xangst2     0.0000000000E+00  0.0000000000E+00 -1.7582373533E-01
                       0.0000000000E+00  1.9858938206E+00  1.9182561358E+00
                       0.0000000000E+00  0.0000000000E+00  4.0394253261E+00
                       0.0000000000E+00  1.9858938206E+00  6.1335051972E+00
           xangst3     0.0000000000E+00  0.0000000000E+00 -1.0354237989E-01
                       0.0000000000E+00  1.9858938206E+00  1.9260329005E+00
                       0.0000000000E+00  0.0000000000E+00  3.9717876413E+00
                       0.0000000000E+00  1.9858938206E+00  6.0175423821E+00
                       0.0000000000E+00  0.0000000000E+00  8.0471176625E+00
            xcart1     0.0000000000E+00  0.0000000000E+00 -1.6788580096E-01
                       0.0000000000E+00  3.7527954500E+00  3.7527954500E+00
                       0.0000000000E+00  0.0000000000E+00  7.6734767010E+00
            xcart2     0.0000000000E+00  0.0000000000E+00 -3.3225870743E-01
                       0.0000000000E+00  3.7527954500E+00  3.6249787495E+00
                       0.0000000000E+00  0.0000000000E+00  7.6334076005E+00
                       0.0000000000E+00  3.7527954500E+00  1.1590645057E+01
            xcart3     0.0000000000E+00  0.0000000000E+00 -1.9566674115E-01
                       0.0000000000E+00  3.7527954500E+00  3.6396747049E+00
                       0.0000000000E+00  0.0000000000E+00  7.5055909000E+00
                       0.0000000000E+00  3.7527954500E+00  1.1371507095E+01
                       0.0000000000E+00  0.0000000000E+00  1.5206848541E+01
             xred1     0.0000000000E+00  0.0000000000E+00 -8.9472396349E-03
                      -5.0000000000E-01  5.0000000000E-01  2.0000000000E-01
                       0.0000000000E+00  0.0000000000E+00  4.0894723963E-01
             xred2     0.0000000000E+00  0.0000000000E+00 -1.4756053714E-02
                      -5.0000000000E-01  5.0000000000E-01  1.6099015599E-01
                       0.0000000000E+00  0.0000000000E+00  3.3900984401E-01
                      -5.0000000000E-01  5.0000000000E-01  5.1475605371E-01
             xred3     0.0000000000E+00  0.0000000000E+00 -7.4484186428E-03
                      -5.0000000000E-01  5.0000000000E-01  1.3855099117E-01
                       0.0000000000E+00  0.0000000000E+00  2.8571428571E-01
                      -5.0000000000E-01  5.0000000000E-01  4.3287758026E-01
                       0.0000000000E+00  0.0000000000E+00  5.7887699007E-01
            znucl       13.00000

================================================================================


- Timing analysis has been suppressed with timopt=0



================================================================================

 Suggested references for the acknowledgment of ABINIT usage.

 The users of ABINIT have little formal obligations with respect to the ABINIT group
 (those specified in the GNU General Public License, http://www.gnu.org/copyleft/gpl.txt).
 However, it is common practice in the scientific literature,
 to acknowledge the efforts of people that have made the research possible.
 In this spirit, please find below suggested citations of work written by ABINIT developers,
 corresponding to implementations inside of ABINIT that you have used in the present run.
 Note also that it will be of great value to readers of publications presenting these results,
 to read papers enabling them to understand the theoretical formalism and details
 of the ABINIT implementation.
 For information on why they are suggested, see also http://www.abinit.org/about/?text=acknowledgments.

 [1] Preconditioning of self-consistent-field cycles in density functional theory : the extrapolar method
 P.-M. Anglade, X. Gonze, Phys. Rev. B 78, 045126 (2008).
 Comment : to be cited in case the extrapolar conditioner is used, i.e. non-vanishing iprcel.

 [2] Ab initio pseudopotentials for electronic structure calculations of poly-atomic systems, 
 using density-functional theory.
 M. Fuchs, M. Scheffler, Comput. Phys. Commun. 119, 67 (1999).
 Comment : Some pseudopotential generated using the FHI code were used.

 [3] ABINIT : First-principles approach of materials and nanosystem properties.
 X. Gonze, B. Amadon, P.-M. Anglade, J.-M. Beuken, F. Bottin, P. Boulanger, F. Bruneval,
 D. Caliste, R. Caracas, M. Cote, T. Deutsch, L. Genovese, Ph. Ghosez, M. Giantomassi
 S. Goedecker, D.R. Hamann, P. Hermet, F. Jollet, G. Jomard, S. Leroux, M. Mancini, S. Mazevet,
 M.J.T. Oliveira, G. Onida, Y. Pouillon, T. Rangel, G.-M. Rignanese, D. Sangalli, R. Shaltaf,
 M. Torrent, M.J. Verstraete, G. Zerah, J.W. Zwanziger
 Computer Phys. Comm. 180, 2582-2615 (2009).
 Comment : the third generic paper describing the ABINIT project.
 Note that a version of this paper, that is not formatted for Computer Phys. Comm. 
 is available at http://www.abinit.org/about/ABINIT_CPC_v10.pdf .
 The licence allows the authors to put it on the Web.

 [4] A brief introduction to the ABINIT software package.
 X. Gonze, G.-M. Rignanese, M. Verstraete, J.-M. Beuken, Y. Pouillon, R. Caracas, F. Jollet,
 M. Torrent, G. Zerah, M. Mikami, Ph. Ghosez, M. Veithen, J.-Y. Raty, V. Olevano, F. Bruneval,
 L. Reining, R. Godby, G. Onida, D.R. Hamann, and D.C. Allan.
 Z. Kristallogr. 220, 558-562 (2005).
 Comment : the second generic paper describing the ABINIT project. Note that this paper
 should be cited especially if you are using the GW part of ABINIT, as several authors
 of this part are not in the list of authors of the first or third paper.
 The .pdf of the latter paper is available at http://www.abinit.org/about/zfk_0505-06_558-562.pdf.
 Note that it should not redistributed (Copyright by Oldenburg Wissenshaftverlag,
 the licence allows the authors to put it on the Web).


 And optionally :

 [5] First-principles computation of material properties : the ABINIT software project. 
 X. Gonze, J.-M. Beuken, R. Caracas, F. Detraux, M. Fuchs, G.-M. Rignanese, L. Sindic,
 M. Verstraete, G. Zerah, F. Jollet, M. Torrent, A. Roy, M. Mikami, Ph. Ghosez, J.-Y. Raty, D.C. Allan.
 Computational Materials Science 25, 478-492 (2002). http://dx.doi.org/10.1016/S0927-0256(02)00325-7
 Comment : the original paper describing the ABINIT project.
-
- Proc.   0 individual time (sec): cpu=         21.1  wall=         22.8

================================================================================

 Calculation completed.
.Delivered   20 WARNINGs and   6 COMMENTs to log file.
+Overall time at end (sec) : cpu=         21.1  wall=         22.8
