
.Version 7.4.3 of ABINIT 
.(MPI version, prepared for a i686_cygwin_gnu4.7 computer) 

.Copyright (C) 1998-2013 ABINIT group . 
 ABINIT comes with ABSOLUTELY NO WARRANTY.
 It is free software, and you are welcome to redistribute it
 under certain conditions (GNU General Public License,
 see ~abinit/COPYING or http://www.gnu.org/copyleft/gpl.txt).

 ABINIT is a project of the Universite Catholique de Louvain,
 Corning Inc. and other collaborators, see ~abinit/doc/developers/contributors.txt .
 Please read ~abinit/doc/users/acknowledgments.html for suggested
 acknowledgments of the ABINIT effort.
 For more information, see http://www.abinit.org .

.Starting date : Mon  4 Jun 2018.
- ( at 13h19 )
  

 herald :  WARNING -
  The starting date is more than 3 years after the initial release
  of this version of ABINIT, namely Aug 2013.
  This version of ABINIT is not supported anymore.
  Action : please, switch to a more recent version of ABINIT.
- input  file    -> tbs_2.in
- output file    -> tbs_2.out
- root for input  files -> tbs_2i
- root for output files -> tbs_2o


 Symmetries : space group Fd -3 m (#227); Bravais cF (face-center cubic)
================================================================================
 Values of the parameters that define the memory need of the present run
   intxc =         0  ionmov =         0    iscf =         7 xclevel =         1
  lmnmax =         2   lnmax =         2   mband =         8  mffmem =         1
P  mgfft =        18   mkmem =        64 mpssoang=         3     mpw =       278
  mqgrid =      3001   natom =         2    nfft =      5832    nkpt =        64
  nloalg =         4  nspden =         1 nspinor =         1  nsppol =         1
    nsym =        48  n1xccc =      2501  ntypat =         1  occopt =         1
================================================================================
P This job should need less than                       4.704 Mbytes of memory.
  Rough estimation (10% accuracy) of disk space for files :
_ WF disk file :      2.174 Mbytes ; DEN or POT disk file :      0.046 Mbytes.
================================================================================

--------------------------------------------------------------------------------
------------- Echo of variables that govern the present computation ------------
--------------------------------------------------------------------------------
-
- outvars: echo of selected default values                                      
-   accesswff0 =  0 , fftalg0 =112 , wfoptalg0 =  0
-
- outvars: echo of global parameters not present in the input file              
-  max_nthreads =    0
-
 -outvars: echo values of preprocessed input variables --------
            acell      1.0217000000E+01  1.0217000000E+01  1.0217000000E+01 Bohr
              amu      2.80855000E+01
     bs_algorithm           2
      bs_coupling           0
     bs_freq_mesh      0.00000000E+00  2.20495952E-01  7.34986508E-04 Hartree
 bs_haydock_niter         200
   bs_haydock_tol      5.00000000E-02  0.00000000E+00
        bs_loband        2
      chksymbreak           0
           diemac      1.20000000E+01
             ecut      7.56385066E+00 Hartree
          ecuteps      1.51277013E+00 Hartree
          ecutwfn      7.56385066E+00 Hartree
         icutcoul           3
          inclvkb           2
           irdscr           1
           irdwfk           1
              kpt      2.75000000E-02  5.25000000E-02  7.75000000E-02
                       2.77500000E-01  5.25000000E-02  7.75000000E-02
                      -4.72500000E-01  5.25000000E-02  7.75000000E-02
                      -2.22500000E-01  5.25000000E-02  7.75000000E-02
                       2.75000000E-02  3.02500000E-01  7.75000000E-02
                       2.77500000E-01  3.02500000E-01  7.75000000E-02
                      -4.72500000E-01  3.02500000E-01  7.75000000E-02
                      -2.22500000E-01  3.02500000E-01  7.75000000E-02
                       2.75000000E-02 -4.47500000E-01  7.75000000E-02
                       2.77500000E-01 -4.47500000E-01  7.75000000E-02
                      -4.72500000E-01 -4.47500000E-01  7.75000000E-02
                      -2.22500000E-01 -4.47500000E-01  7.75000000E-02
                       2.75000000E-02 -1.97500000E-01  7.75000000E-02
                       2.77500000E-01 -1.97500000E-01  7.75000000E-02
                      -4.72500000E-01 -1.97500000E-01  7.75000000E-02
                      -2.22500000E-01 -1.97500000E-01  7.75000000E-02
                       2.75000000E-02  5.25000000E-02  3.27500000E-01
                       2.77500000E-01  5.25000000E-02  3.27500000E-01
                      -4.72500000E-01  5.25000000E-02  3.27500000E-01
                      -2.22500000E-01  5.25000000E-02  3.27500000E-01
                       2.75000000E-02  3.02500000E-01  3.27500000E-01
                       2.77500000E-01  3.02500000E-01  3.27500000E-01
                      -4.72500000E-01  3.02500000E-01  3.27500000E-01
                      -2.22500000E-01  3.02500000E-01  3.27500000E-01
                       2.75000000E-02 -4.47500000E-01  3.27500000E-01
                       2.77500000E-01 -4.47500000E-01  3.27500000E-01
                      -4.72500000E-01 -4.47500000E-01  3.27500000E-01
                      -2.22500000E-01 -4.47500000E-01  3.27500000E-01
                       2.75000000E-02 -1.97500000E-01  3.27500000E-01
                       2.77500000E-01 -1.97500000E-01  3.27500000E-01
                      -4.72500000E-01 -1.97500000E-01  3.27500000E-01
                      -2.22500000E-01 -1.97500000E-01  3.27500000E-01
                       2.75000000E-02  5.25000000E-02 -4.22500000E-01
                       2.77500000E-01  5.25000000E-02 -4.22500000E-01
                      -4.72500000E-01  5.25000000E-02 -4.22500000E-01
                      -2.22500000E-01  5.25000000E-02 -4.22500000E-01
                       2.75000000E-02  3.02500000E-01 -4.22500000E-01
                       2.77500000E-01  3.02500000E-01 -4.22500000E-01
                      -4.72500000E-01  3.02500000E-01 -4.22500000E-01
                      -2.22500000E-01  3.02500000E-01 -4.22500000E-01
                       2.75000000E-02 -4.47500000E-01 -4.22500000E-01
                       2.77500000E-01 -4.47500000E-01 -4.22500000E-01
                      -4.72500000E-01 -4.47500000E-01 -4.22500000E-01
                      -2.22500000E-01 -4.47500000E-01 -4.22500000E-01
                       2.75000000E-02 -1.97500000E-01 -4.22500000E-01
                       2.77500000E-01 -1.97500000E-01 -4.22500000E-01
                      -4.72500000E-01 -1.97500000E-01 -4.22500000E-01
                      -2.22500000E-01 -1.97500000E-01 -4.22500000E-01
                       2.75000000E-02  5.25000000E-02 -1.72500000E-01
                       2.77500000E-01  5.25000000E-02 -1.72500000E-01
                       outvar_i_n : Printing only first  50 k-points.
         kptrlatt        4    0    0      0    4    0      0    0    4
          kptrlen      2.88980399E+01
P           mkmem          64
            natom           2
            nband           8
            ngfft          18      18      18
             nkpt          64
           npweps          27
           npwwfn         283
           nsheps           4
            nstep          50
             nsym          48
           ntypat           1
              occ      2.000000  2.000000  2.000000  2.000000  0.000000  0.000000
                       0.000000  0.000000
        optdriver          99
            rprim      0.0000000000E+00  5.0000000000E-01  5.0000000000E-01
                       5.0000000000E-01  0.0000000000E+00  5.0000000000E-01
                       5.0000000000E-01  5.0000000000E-01  0.0000000000E+00
           shiftk      1.10000000E-01  2.10000000E-01  3.10000000E-01
          spgroup         227
           symrel      1  0  0   0  1  0   0  0  1      -1  0  0   0 -1  0   0  0 -1
                       0 -1  1   0 -1  0   1 -1  0       0  1 -1   0  1  0  -1  1  0
                      -1  0  0  -1  0  1  -1  1  0       1  0  0   1  0 -1   1 -1  0
                       0  1 -1   1  0 -1   0  0 -1       0 -1  1  -1  0  1   0  0  1
                      -1  0  0  -1  1  0  -1  0  1       1  0  0   1 -1  0   1  0 -1
                       0 -1  1   1 -1  0   0 -1  0       0  1 -1  -1  1  0   0  1  0
                       1  0  0   0  0  1   0  1  0      -1  0  0   0  0 -1   0 -1  0
                       0  1 -1   0  0 -1   1  0 -1       0 -1  1   0  0  1  -1  0  1
                      -1  0  1  -1  1  0  -1  0  0       1  0 -1   1 -1  0   1  0  0
                       0 -1  0   1 -1  0   0 -1  1       0  1  0  -1  1  0   0  1 -1
                       1  0 -1   0  0 -1   0  1 -1      -1  0  1   0  0  1   0 -1  1
                       0  1  0   0  0  1   1  0  0       0 -1  0   0  0 -1  -1  0  0
                       1  0 -1   0  1 -1   0  0 -1      -1  0  1   0 -1  1   0  0  1
                       0 -1  0   0 -1  1   1 -1  0       0  1  0   0  1 -1  -1  1  0
                      -1  0  1  -1  0  0  -1  1  0       1  0 -1   1  0  0   1 -1  0
                       0  1  0   1  0  0   0  0  1       0 -1  0  -1  0  0   0  0 -1
                       0  0 -1   0  1 -1   1  0 -1       0  0  1   0 -1  1  -1  0  1
                       1 -1  0   0 -1  1   0 -1  0      -1  1  0   0  1 -1   0  1  0
                       0  0  1   1  0  0   0  1  0       0  0 -1  -1  0  0   0 -1  0
                      -1  1  0  -1  0  0  -1  0  1       1 -1  0   1  0  0   1  0 -1
                       0  0  1   0  1  0   1  0  0       0  0 -1   0 -1  0  -1  0  0
                       1 -1  0   0 -1  0   0 -1  1      -1  1  0   0  1  0   0  1 -1
                       0  0 -1   1  0 -1   0  1 -1       0  0  1  -1  0  1   0 -1  1
                      -1  1  0  -1  0  1  -1  0  0       1 -1  0   1  0 -1   1  0  0
            tnons      0.0000000  0.0000000  0.0000000     0.2500000  0.2500000  0.2500000
                       0.0000000  0.0000000  0.0000000     0.2500000  0.2500000  0.2500000
                       0.0000000  0.0000000  0.0000000     0.2500000  0.2500000  0.2500000
                       0.0000000  0.0000000  0.0000000     0.2500000  0.2500000  0.2500000
                       0.0000000  0.0000000  0.0000000     0.2500000  0.2500000  0.2500000
                       0.0000000  0.0000000  0.0000000     0.2500000  0.2500000  0.2500000
                       0.0000000  0.0000000  0.0000000     0.2500000  0.2500000  0.2500000
                       0.0000000  0.0000000  0.0000000     0.2500000  0.2500000  0.2500000
                       0.0000000  0.0000000  0.0000000     0.2500000  0.2500000  0.2500000
                       0.0000000  0.0000000  0.0000000     0.2500000  0.2500000  0.2500000
                       0.0000000  0.0000000  0.0000000     0.2500000  0.2500000  0.2500000
                       0.0000000  0.0000000  0.0000000     0.2500000  0.2500000  0.2500000
                       0.0000000  0.0000000  0.0000000     0.2500000  0.2500000  0.2500000
                       0.0000000  0.0000000  0.0000000     0.2500000  0.2500000  0.2500000
                       0.0000000  0.0000000  0.0000000     0.2500000  0.2500000  0.2500000
                       0.0000000  0.0000000  0.0000000     0.2500000  0.2500000  0.2500000
                       0.0000000  0.0000000  0.0000000     0.2500000  0.2500000  0.2500000
                       0.0000000  0.0000000  0.0000000     0.2500000  0.2500000  0.2500000
                       0.0000000  0.0000000  0.0000000     0.2500000  0.2500000  0.2500000
                       0.0000000  0.0000000  0.0000000     0.2500000  0.2500000  0.2500000
                       0.0000000  0.0000000  0.0000000     0.2500000  0.2500000  0.2500000
                       0.0000000  0.0000000  0.0000000     0.2500000  0.2500000  0.2500000
                       0.0000000  0.0000000  0.0000000     0.2500000  0.2500000  0.2500000
                       0.0000000  0.0000000  0.0000000     0.2500000  0.2500000  0.2500000
            typat      1  1
              wtk        0.01563    0.01563    0.01563    0.01563    0.01563    0.01563
                         0.01563    0.01563    0.01563    0.01563    0.01563    0.01563
                         0.01563    0.01563    0.01563    0.01563    0.01563    0.01563
                         0.01563    0.01563    0.01563    0.01563    0.01563    0.01563
                         0.01563    0.01563    0.01563    0.01563    0.01563    0.01563
                         0.01563    0.01563    0.01563    0.01563    0.01563    0.01563
                         0.01563    0.01563    0.01563    0.01563    0.01563    0.01563
                         0.01563    0.01563    0.01563    0.01563    0.01563    0.01563
                         0.01563    0.01563
                       outvars : Printing only first  50 k-points.
           xangst      0.0000000000E+00  0.0000000000E+00  0.0000000000E+00
                       1.3516508850E+00  1.3516508850E+00  1.3516508850E+00
            xcart      0.0000000000E+00  0.0000000000E+00  0.0000000000E+00
                       2.5542500000E+00  2.5542500000E+00  2.5542500000E+00
             xred      0.0000000000E+00  0.0000000000E+00  0.0000000000E+00
                       2.5000000000E-01  2.5000000000E-01  2.5000000000E-01
             zcut      5.51239881E-03 Hartree
            znucl       14.00000

================================================================================

 chkinp: Checking input parameters for consistency.
