  ABINIT 
  
  Give name for formatted input file: 
tbasepar_1.in
  Give name for formatted output file:
tbasepar_1.out
  Give root name for generic input files:
tbasepar_1i
  Give root name for generic output files:
tbasepar_1o
  Give root name for generic temporary files:
tbasepar_1

 herald :  WARNING -
  The starting date is more than 3 years after the initial release
  of this version of ABINIT, namely Aug 2013.
  This version of ABINIT is not supported anymore.
  Action : please, switch to a more recent version of ABINIT.

.Version 7.4.3 of ABINIT 
.(MPI version, prepared for a i686_cygwin_gnu4.7 computer) 

.Copyright (C) 1998-2013 ABINIT group . 
 ABINIT comes with ABSOLUTELY NO WARRANTY.
 It is free software, and you are welcome to redistribute it
 under certain conditions (GNU General Public License,
 see ~abinit/COPYING or http://www.gnu.org/copyleft/gpl.txt).

 ABINIT is a project of the Universite Catholique de Louvain,
 Corning Inc. and other collaborators, see ~abinit/doc/developers/contributors.txt .
 Please read ~abinit/doc/users/acknowledgments.html for suggested
 acknowledgments of the ABINIT effort.
 For more information, see http://www.abinit.org .

.Starting date : Mon  4 Jun 2018.
- ( at 13h06 )
  

 herald :  WARNING -
  The starting date is more than 3 years after the initial release
  of this version of ABINIT, namely Aug 2013.
  This version of ABINIT is not supported anymore.
  Action : please, switch to a more recent version of ABINIT.

 herald :  WARNING -
  The starting date is more than 3 years after the initial release
  of this version of ABINIT, namely Aug 2013.
  This version of ABINIT is not supported anymore.
  Action : please, switch to a more recent version of ABINIT.

 ++++++++++++++++++++++++++++++++++++++++++++++++++++++++++++++++++++++++++++++

 === Build Information === 
  Version       : 7.4.3
  Build target  : i686_cygwin_gnu4.7
  Build date    : 20131019

 === Compiler Suite === 
  C compiler       : gnu
  CFLAGS           : -mfpmath=sse -msse2 -O2 -Wstrict-aliasing=2 -static
  C++ compiler     : gnu4.7
  CXXFLAGS         : -mfpmath=sse -msse2 -O2 -Wstrict-aliasing=2 -static
  Fortran compiler : gnu4.7
  FCFLAGS          : -mfpmath=sse -msse2 -O2 -ffree-line-length-none -Wstrict-aliasing=2 -static
  FC_LDFLAGS       : 

 === Optimizations === 
  Debug level        : no
  Optimization level : standard
  Architecture       : _

 === MPI === 
  Parallel build : yes
  Parallel I/O   : no
  Time tracing   : no
  GPU support    : no

 === Connectors / Fallbacks === 
  Connectors on : yes
  Fallbacks on  : yes
  DFT flavor    : libxc+atompaw+bigdft+wannier90
  FFT flavor    : none
  LINALG flavor : netlib
  MATH flavor   : none
  TIMER flavor  : abinit
  TRIO flavor   : netcdf+etsf_io

 === Experimental features === 
  Bindings            : no
  Exports             : no
  GW double-precision : yes

 === Bazaar branch information === 
  Branch ID : xavier.gonze@uclouvain.be-20131019063522-8wupmx7xtg5stywd
  Revision  : 490
  Committed : 0

 ++++++++++++++++++++++++++++++++++++++++++++++++++++++++++++++++++++++++++++++


 ++++++++++++++++++++++++++++++++++++++++++++++++++++++++++++++++++++++++++++++
 Default optimizations:
   --- None ---


 ++++++++++++++++++++++++++++++++++++++++++++++++++++++++++++++++++++++++++++++


 ++++++++++++++++++++++++++++++++++++++++++++++++++++++++++++++++++++++++++++++
 CPP options activated during the build:

                    CC_GNU                   CXX_GNU                    FC_GNU

           HAVE_BZR_BRANCH          HAVE_DFT_ATOMPAW           HAVE_DFT_BIGDFT

            HAVE_DFT_LIBXC        HAVE_DFT_WANNIER90 HAVE_FC_ALLOCATABLE_DT...

      HAVE_FC_COMMAND_LINE        HAVE_FC_CONTIGUOUS           HAVE_FC_CPUTIME

              HAVE_FC_EXIT             HAVE_FC_FLUSH             HAVE_FC_GAMMA

            HAVE_FC_GETENV          HAVE_FC_INT_QUAD             HAVE_FC_IOMSG

     HAVE_FC_ISO_C_BINDING        HAVE_FC_LONG_LINES              HAVE_FC_NULL

         HAVE_FC_STREAM_IO          HAVE_FORTRAN2003               HAVE_LINALG

        HAVE_LINALG_SERIAL                  HAVE_MPI                 HAVE_MPI1

 HAVE_MPI_TYPE_CREATE_S...           HAVE_OS_WINDOWS                HAVE_TIMER

         HAVE_TIMER_ABINIT            HAVE_TIMER_MPI         HAVE_TIMER_SERIAL

         HAVE_TRIO_ETSF_IO          HAVE_TRIO_NETCDF
 ++++++++++++++++++++++++++++++++++++++++++++++++++++++++++++++++++++++++++++++

- input  file    -> tbasepar_1.in
- output file    -> tbasepar_1.out
- root for input  files -> tbasepar_1i
- root for output files -> tbasepar_1o

-instrng :    51 lines of input have been read from file tbasepar_1.in


 iofn2 : Please give name of formatted atomic psp file
 iofn2 : for atom type   1 , psp file is 82pb.4.hgh
  read the values zionpsp=  4.0 , pspcod=   3 , lmax=   2

 inpspheads : deduce mpsang  =   3, n1xccc  =   0.

 invars1m : enter jdtset=     0
 invars1 : treat image number     1

 symlatt : the Bravais lattice is cF (face-centered cubic)
  xred   is defined in input file
 ingeo : takes atomic coordinates from input array xred

 symlatt : the Bravais lattice is cF (face-centered cubic)

 symlatt : the Bravais lattice is cF (face-centered cubic)
 symspgr : the symmetry operation no.   1 is the identity
 symspgr : the symmetry operation no.   2 is an inversion
 symaxes : the symmetry operation no.   3 is a 2-axis
 symplanes : the symmetry operation no.   4 is a mirror plane
 symaxes : the symmetry operation no.   5 is a 2-axis
 symplanes : the symmetry operation no.   6 is a mirror plane
 symaxes : the symmetry operation no.   7 is a 2-axis
 symplanes : the symmetry operation no.   8 is a mirror plane
 symplanes : the symmetry operation no.   9 is a mirror plane
 symaxes : the symmetry operation no.  10 is a 2-axis
 symspgr : the symmetry operation no.  11 is a -4 axis
 symaxes : the symmetry operation no.  12 is a 4-axis
 symplanes : the symmetry operation no.  13 is a mirror plane
 symaxes : the symmetry operation no.  14 is a 2-axis
 symspgr : the symmetry operation no.  15 is a -4 axis
 symaxes : the symmetry operation no.  16 is a 4-axis
 symaxes : the symmetry operation no.  17 is a 3-axis
 symspgr : the symmetry operation no.  18 is a -3 axis
 symaxes : the symmetry operation no.  19 is a 3-axis
 symspgr : the symmetry operation no.  20 is a -3 axis
 symaxes : the symmetry operation no.  21 is a 3-axis
 symspgr : the symmetry operation no.  22 is a -3 axis
 symaxes : the symmetry operation no.  23 is a 3-axis
 symspgr : the symmetry operation no.  24 is a -3 axis
 symplanes : the symmetry operation no.  25 is a mirror plane
 symaxes : the symmetry operation no.  26 is a 2-axis
 symspgr : the symmetry operation no.  27 is a -4 axis
 symaxes : the symmetry operation no.  28 is a 4-axis
 symspgr : the symmetry operation no.  29 is a -4 axis
 symaxes : the symmetry operation no.  30 is a 4-axis
 symplanes : the symmetry operation no.  31 is a mirror plane
 symaxes : the symmetry operation no.  32 is a 2-axis
 symaxes : the symmetry operation no.  33 is a 3-axis
 symspgr : the symmetry operation no.  34 is a -3 axis
 symaxes : the symmetry operation no.  35 is a 3-axis
 symspgr : the symmetry operation no.  36 is a -3 axis
 symaxes : the symmetry operation no.  37 is a 3-axis
 symspgr : the symmetry operation no.  38 is a -3 axis
 symaxes : the symmetry operation no.  39 is a 3-axis
 symspgr : the symmetry operation no.  40 is a -3 axis
 symplanes : the symmetry operation no.  41 is a mirror plane
 symaxes : the symmetry operation no.  42 is a 2-axis
 symplanes : the symmetry operation no.  43 is a mirror plane
 symaxes : the symmetry operation no.  44 is a 2-axis
 symspgr : the symmetry operation no.  45 is a -4 axis
 symaxes : the symmetry operation no.  46 is a 4-axis
 symspgr : the symmetry operation no.  47 is a -4 axis
 symaxes : the symmetry operation no.  48 is a 4-axis
 symspgr : the symmetry operation no.  49 is a pure translation
 symspgr : the symmetry operation no.  50 is an inversion
 symaxes : the symmetry operation no.  51 is a 2_1-axis
 symplanes : the symmetry operation no.  52 is a primary n plane
 symaxes : the symmetry operation no.  53 is a 2_1-axis
 symplanes : the symmetry operation no.  54 is a primary n plane
 symaxes : the symmetry operation no.  55 is a 2-axis
 symplanes : the symmetry operation no.  56 is a primary n plane
 symplanes : the symmetry operation no.  57 is a tertiary m plane
 symaxes : the symmetry operation no.  58 is a 2_1-axis
 symspgr : the symmetry operation no.  59 is a -4 axis
 symaxes : the symmetry operation no.  60 is a 4_2-axis
 symplanes : the symmetry operation no.  61 is a tertiary m plane
 symaxes : the symmetry operation no.  62 is a 2_1-axis
 symspgr : the symmetry operation no.  63 is a -4 axis
 symaxes : the symmetry operation no.  64 is a 4_2-axis
 symaxes : the symmetry operation no.  65 is a 3, 3_1 or 3_2 axis
 symspgr : the symmetry operation no.  66 is a -3 axis
 symaxes : the symmetry operation no.  67 is a 3-axis
 symspgr : the symmetry operation no.  68 is a -3 axis
 symaxes : the symmetry operation no.  69 is a 3, 3_1 or 3_2 axis
 symspgr : the symmetry operation no.  70 is a -3 axis
 symaxes : the symmetry operation no.  71 is a 3-axis
 symspgr : the symmetry operation no.  72 is a -3 axis
 symplanes : the symmetry operation no.  73 is a tertiary m plane
 symaxes : the symmetry operation no.  74 is a 2-axis
 symspgr : the symmetry operation no.  75 is a -4 axis
 symaxes : the symmetry operation no.  76 is a 4-axis
 symspgr : the symmetry operation no.  77 is a -4 axis
 symaxes : the symmetry operation no.  78 is a 4-axis
 symplanes : the symmetry operation no.  79 is a mirror plane
 symaxes : the symmetry operation no.  80 is a 2-axis
 symaxes : the symmetry operation no.  81 is a 3, 3_1 or 3_2 axis
 symspgr : the symmetry operation no.  82 is a -3 axis
 symaxes : the symmetry operation no.  83 is a 3, 3_1 or 3_2 axis
 symspgr : the symmetry operation no.  84 is a -3 axis
 symaxes : the symmetry operation no.  85 is a 3-axis
 symspgr : the symmetry operation no.  86 is a -3 axis
 symaxes : the symmetry operation no.  87 is a 3-axis
 symspgr : the symmetry operation no.  88 is a -3 axis
 symplanes : the symmetry operation no.  89 is a tertiary m plane
 symaxes : the symmetry operation no.  90 is a 2_1-axis
 symplanes : the symmetry operation no.  91 is a tertiary m plane
 symaxes : the symmetry operation no.  92 is a 2_1-axis
 symspgr : the symmetry operation no.  93 is a -4 axis
 symaxes : the symmetry operation no.  94 is a 4_2-axis
 symspgr : the symmetry operation no.  95 is a -4 axis
 symaxes : the symmetry operation no.  96 is a 4_2-axis
 symspgr : the symmetry operation no.  97 is a pure translation
 symspgr : the symmetry operation no.  98 is an inversion
 symaxes : the symmetry operation no.  99 is a 2-axis
 symplanes : the symmetry operation no. 100 is a primary n plane
 symaxes : the symmetry operation no. 101 is a 2_1-axis
 symplanes : the symmetry operation no. 102 is a primary n plane
 symaxes : the symmetry operation no. 103 is a 2_1-axis
 symplanes : the symmetry operation no. 104 is a primary n plane
 symplanes : the symmetry operation no. 105 is a tertiary m plane
 symaxes : the symmetry operation no. 106 is a 2_1-axis
 symspgr : the symmetry operation no. 107 is a -4 axis
 symaxes : the symmetry operation no. 108 is a 4_2-axis
 symplanes : the symmetry operation no. 109 is a tertiary m plane
 symaxes : the symmetry operation no. 110 is a 2_1-axis
 symspgr : the symmetry operation no. 111 is a -4 axis
 symaxes : the symmetry operation no. 112 is a 4_2-axis
 symaxes : the symmetry operation no. 113 is a 3, 3_1 or 3_2 axis
 symspgr : the symmetry operation no. 114 is a -3 axis
 symaxes : the symmetry operation no. 115 is a 3-axis
 symspgr : the symmetry operation no. 116 is a -3 axis
 symaxes : the symmetry operation no. 117 is a 3-axis
 symspgr : the symmetry operation no. 118 is a -3 axis
 symaxes : the symmetry operation no. 119 is a 3, 3_1 or 3_2 axis
 symspgr : the symmetry operation no. 120 is a -3 axis
 symplanes : the symmetry operation no. 121 is a tertiary m plane
 symaxes : the symmetry operation no. 122 is a 2_1-axis
 symspgr : the symmetry operation no. 123 is a -4 axis
 symaxes : the symmetry operation no. 124 is a 4_2-axis
 symspgr : the symmetry operation no. 125 is a -4 axis
 symaxes : the symmetry operation no. 126 is a 4_2-axis
 symplanes : the symmetry operation no. 127 is a tertiary m plane
 symaxes : the symmetry operation no. 128 is a 2_1-axis
 symaxes : the symmetry operation no. 129 is a 3, 3_1 or 3_2 axis
 symspgr : the symmetry operation no. 130 is a -3 axis
 symaxes : the symmetry operation no. 131 is a 3-axis
 symspgr : the symmetry operation no. 132 is a -3 axis
 symaxes : the symmetry operation no. 133 is a 3, 3_1 or 3_2 axis
 symspgr : the symmetry operation no. 134 is a -3 axis
 symaxes : the symmetry operation no. 135 is a 3-axis
 symspgr : the symmetry operation no. 136 is a -3 axis
 symplanes : the symmetry operation no. 137 is a tertiary m plane
 symaxes : the symmetry operation no. 138 is a 2-axis
 symplanes : the symmetry operation no. 139 is a mirror plane
 symaxes : the symmetry operation no. 140 is a 2-axis
 symspgr : the symmetry operation no. 141 is a -4 axis
 symaxes : the symmetry operation no. 142 is a 4-axis
 symspgr : the symmetry operation no. 143 is a -4 axis
 symaxes : the symmetry operation no. 144 is a 4-axis
 symspgr : the symmetry operation no. 145 is a pure translation
 symspgr : the symmetry operation no. 146 is an inversion
 symaxes : the symmetry operation no. 147 is a 2_1-axis
 symplanes : the symmetry operation no. 148 is a primary n plane
 symaxes : the symmetry operation no. 149 is a 2-axis
 symplanes : the symmetry operation no. 150 is a primary n plane
 symaxes : the symmetry operation no. 151 is a 2_1-axis
 symplanes : the symmetry operation no. 152 is a primary n plane
 symplanes : the symmetry operation no. 153 is a tertiary m plane
 symaxes : the symmetry operation no. 154 is a 2-axis
 symspgr : the symmetry operation no. 155 is a -4 axis
 symaxes : the symmetry operation no. 156 is a 4-axis
 symplanes : the symmetry operation no. 157 is a mirror plane
 symaxes : the symmetry operation no. 158 is a 2-axis
 symspgr : the symmetry operation no. 159 is a -4 axis
 symaxes : the symmetry operation no. 160 is a 4-axis
 symaxes : the symmetry operation no. 161 is a 3, 3_1 or 3_2 axis
 symspgr : the symmetry operation no. 162 is a -3 axis
 symaxes : the symmetry operation no. 163 is a 3, 3_1 or 3_2 axis
 symspgr : the symmetry operation no. 164 is a -3 axis
 symaxes : the symmetry operation no. 165 is a 3-axis
 symspgr : the symmetry operation no. 166 is a -3 axis
 symaxes : the symmetry operation no. 167 is a 3-axis
 symspgr : the symmetry operation no. 168 is a -3 axis
 symplanes : the symmetry operation no. 169 is a tertiary m plane
 symaxes : the symmetry operation no. 170 is a 2_1-axis
 symspgr : the symmetry operation no. 171 is a -4 axis
 symaxes : the symmetry operation no. 172 is a 4_2-axis
 symspgr : the symmetry operation no. 173 is a -4 axis
 symaxes : the symmetry operation no. 174 is a 4_2-axis
 symplanes : the symmetry operation no. 175 is a tertiary m plane
 symaxes : the symmetry operation no. 176 is a 2_1-axis
 symaxes : the symmetry operation no. 177 is a 3, 3_1 or 3_2 axis
 symspgr : the symmetry operation no. 178 is a -3 axis
 symaxes : the symmetry operation no. 179 is a 3-axis
 symspgr : the symmetry operation no. 180 is a -3 axis
 symaxes : the symmetry operation no. 181 is a 3-axis
 symspgr : the symmetry operation no. 182 is a -3 axis
 symaxes : the symmetry operation no. 183 is a 3, 3_1 or 3_2 axis
 symspgr : the symmetry operation no. 184 is a -3 axis
 symplanes : the symmetry operation no. 185 is a tertiary m plane
 symaxes : the symmetry operation no. 186 is a 2_1-axis
 symplanes : the symmetry operation no. 187 is a tertiary m plane
 symaxes : the symmetry operation no. 188 is a 2_1-axis
 symspgr : the symmetry operation no. 189 is a -4 axis
 symaxes : the symmetry operation no. 190 is a 4_2-axis
 symspgr : the symmetry operation no. 191 is a -4 axis
 symaxes : the symmetry operation no. 192 is a 4_2-axis
 symspgr : spgroup= 225  Fm -3 m   (=Oh^5)
 getkgrid : length of smallest supercell vector (bohr)=    8.000000E+01
       Simple Lattice Grid
 symkpt : found identity, with number  1
 getkgrid : length of smallest supercell vector (bohr)=    8.000000E+01
       Simple Lattice Grid
 symkpt : found identity, with number  1
  dtset%nelect=   4.0000000000000000     
 chkneu : initialized the occupation numbers for occopt=    7
    spin-unpolarized case :
  2.00  2.00  0.00  0.00
  mpi_setup : enter 
 mpi_setup1: mkmem  undefined in the input file. Use default mkmem  = nkpt
 mpi_setup1: With nkpt_me=   60 and mkmem  =    60, ground state wf handled in core.
 mpi_setup1: mkqmem undefined in the input file. Use default mkqmem = nkpt
 mpi_setup1: With nkpt_me=   60 and mkqmem =    60, ground state wf handled in core.
 mpi_setup1: mk1mem undefined in the input file. Use default mk1mem = nkpt
 mpi_setup1: With nkpt_me=   60 and mk1mem =    60, ground state wf handled in core.

 getng.F90:200:WARNING
   The second and third dimension of the FFT grid,    0    0  were imposed to be multiple of the number of processors for the FFT,    1
 For input ecut=  3.000000E+01 best grid ngfft=      36      36      36
       max ecut=  3.197752E+01

 ==== FFT mesh ====
  FFT mesh divisions ........................    36   36   36
  Augmented FFT divisions ...................    37   37   36
  FFT algorithm .............................   112
  FFT cache size ............................    16
 getmpw: optimal value of mpw=    1977

 Symmetries : space group Fm -3 m (#225); Bravais cF (face-center cubic)

 getdim_nloc : deduce lmnmax  =  14, lnmax  =   6,
                      lmnmaxso=  25, lnmaxso=   9.
 setmqgrid : COMMENT -
  The number of points "mqgrid" in reciprocal space used for the
  description of the pseudopotentials has been set automatically
  by abinit to :     3001.
 memory : analysis of memory needs
================================================================================
 Values of the parameters that define the memory need of the present run
   intxc =         0  ionmov =         0    iscf =         7 xclevel =         1
  lmnmax =         6   lnmax =         6   mband =         4  mffmem =         1
P  mgfft =        36   mkmem =        60 mpssoang=         3     mpw =      1977
  mqgrid =      3001   natom =         1    nfft =     46656    nkpt =        60
  nloalg =         4  nspden =         1 nspinor =         1  nsppol =         1
    nsym =        48  n1xccc =         0  ntypat =         1  occopt =         7
================================================================================
P This job should need less than                      23.239 Mbytes of memory.
  Rough estimation (10% accuracy) of disk space for files :
_ WF disk file :      7.242 Mbytes ; DEN or POT disk file :      0.358 Mbytes.
================================================================================

 Biggest array : cg(disk), with      7.2420 MBytes.
 memana : allocated an array of      7.242 Mbytes, for testing purposes.
 memana : allocated      23.239 Mbytes, for testing purposes.
 The job will continue.
--------------------------------------------------------------------------------
------------- Echo of variables that govern the present computation ------------
--------------------------------------------------------------------------------
-
- outvars: echo of selected default values                                      
-   accesswff0 =  0 , fftalg0 =112 , wfoptalg0 =  0
-
- outvars: echo of global parameters not present in the input file              
-  max_nthreads =    0
-
 -outvars: echo values of preprocessed input variables --------
 
 These variables are accessible in NetCDF format (tbasepar_1o_OUT.nc)

            acell      1.0000000000E+01  1.0000000000E+01  1.0000000000E+01 Bohr
              amu      2.07200000E+02
             ecut      3.00000000E+01 Hartree
              kpt     -6.25000000E-02 -1.25000000E-01  0.00000000E+00
                      -6.25000000E-02 -2.50000000E-01  0.00000000E+00
                      -1.25000000E-01 -1.87500000E-01  0.00000000E+00
                      -6.25000000E-02 -1.87500000E-01  6.25000000E-02
                      -6.25000000E-02 -3.75000000E-01  0.00000000E+00
                      -1.25000000E-01 -3.12500000E-01  0.00000000E+00
                      -6.25000000E-02 -3.12500000E-01  6.25000000E-02
                      -1.87500000E-01 -2.50000000E-01  0.00000000E+00
                      -1.25000000E-01 -2.50000000E-01  6.25000000E-02
                      -6.25000000E-02 -2.50000000E-01  1.25000000E-01
                      -6.25000000E-02  5.00000000E-01  0.00000000E+00
                      -1.25000000E-01 -4.37500000E-01  0.00000000E+00
                      -6.25000000E-02 -4.37500000E-01  6.25000000E-02
                      -1.87500000E-01 -3.75000000E-01  0.00000000E+00
                      -1.25000000E-01 -3.75000000E-01  6.25000000E-02
                      -6.25000000E-02 -3.75000000E-01  1.25000000E-01
                      -2.50000000E-01 -3.12500000E-01  0.00000000E+00
                      -1.87500000E-01 -3.12500000E-01  6.25000000E-02
                      -1.25000000E-01 -3.12500000E-01  1.25000000E-01
                      -6.25000000E-02 -3.12500000E-01  1.87500000E-01
                      -6.25000000E-02  3.75000000E-01  0.00000000E+00
                      -1.25000000E-01  4.37500000E-01  0.00000000E+00
                      -1.87500000E-01  5.00000000E-01  0.00000000E+00
                      -1.25000000E-01  5.00000000E-01  6.25000000E-02
                      -2.50000000E-01 -4.37500000E-01  0.00000000E+00
                      -1.87500000E-01 -4.37500000E-01  6.25000000E-02
                      -1.25000000E-01 -4.37500000E-01  1.25000000E-01
                      -6.25000000E-02 -4.37500000E-01  1.87500000E-01
                      -3.12500000E-01 -3.75000000E-01  0.00000000E+00
                      -2.50000000E-01 -3.75000000E-01  6.25000000E-02
                      -1.87500000E-01 -3.75000000E-01  1.25000000E-01
                      -1.25000000E-01 -3.75000000E-01  1.87500000E-01
                      -6.25000000E-02 -3.75000000E-01  2.50000000E-01
                      -6.25000000E-02  2.50000000E-01  0.00000000E+00
                      -1.25000000E-01  3.12500000E-01  0.00000000E+00
                      -1.87500000E-01  3.75000000E-01  0.00000000E+00
                      -2.50000000E-01  4.37500000E-01  0.00000000E+00
                      -3.12500000E-01  5.00000000E-01  0.00000000E+00
                      -2.50000000E-01  5.00000000E-01  6.25000000E-02
                      -1.87500000E-01  5.00000000E-01  1.25000000E-01
                      -3.75000000E-01 -4.37500000E-01  0.00000000E+00
                      -3.12500000E-01 -4.37500000E-01  6.25000000E-02
                      -2.50000000E-01 -4.37500000E-01  1.25000000E-01
                      -1.87500000E-01 -4.37500000E-01  1.87500000E-01
                      -1.25000000E-01 -4.37500000E-01  2.50000000E-01
                      -6.25000000E-02 -4.37500000E-01  3.12500000E-01
                      -6.25000000E-02  1.25000000E-01  0.00000000E+00
                      -1.25000000E-01  1.87500000E-01  0.00000000E+00
                      -1.87500000E-01  2.50000000E-01  0.00000000E+00
                      -2.50000000E-01  3.12500000E-01  0.00000000E+00
                       outvar_i_n : Printing only first  50 k-points.
         kptrlatt        8   -8    8     -8    8    8     -8   -8    8
          kptrlen      8.00000000E+01
P           mkmem          60
            natom           1
            nband           4
            ngfft          36      36      36
             nkpt          60
            nstep           3
             nsym          48
           ntypat           1
              occ      2.000000  2.000000  0.000000  0.000000
                       2.000000  2.000000  0.000000  0.000000
                       2.000000  2.000000  0.000000  0.000000
                       2.000000  2.000000  0.000000  0.000000
                       2.000000  2.000000  0.000000  0.000000
                       2.000000  2.000000  0.000000  0.000000
                       2.000000  2.000000  0.000000  0.000000
                       2.000000  2.000000  0.000000  0.000000
                       2.000000  2.000000  0.000000  0.000000
                       2.000000  2.000000  0.000000  0.000000
                       2.000000  2.000000  0.000000  0.000000
                       2.000000  2.000000  0.000000  0.000000
                       2.000000  2.000000  0.000000  0.000000
                       2.000000  2.000000  0.000000  0.000000
                       2.000000  2.000000  0.000000  0.000000
                       2.000000  2.000000  0.000000  0.000000
                       2.000000  2.000000  0.000000  0.000000
                       2.000000  2.000000  0.000000  0.000000
                       2.000000  2.000000  0.000000  0.000000
                       2.000000  2.000000  0.000000  0.000000
                       2.000000  2.000000  0.000000  0.000000
                       2.000000  2.000000  0.000000  0.000000
                       2.000000  2.000000  0.000000  0.000000
                       2.000000  2.000000  0.000000  0.000000
                       2.000000  2.000000  0.000000  0.000000
                       2.000000  2.000000  0.000000  0.000000
                       2.000000  2.000000  0.000000  0.000000
                       2.000000  2.000000  0.000000  0.000000
                       2.000000  2.000000  0.000000  0.000000
                       2.000000  2.000000  0.000000  0.000000
                       2.000000  2.000000  0.000000  0.000000
                       2.000000  2.000000  0.000000  0.000000
                       2.000000  2.000000  0.000000  0.000000
                       2.000000  2.000000  0.000000  0.000000
                       2.000000  2.000000  0.000000  0.000000
                       2.000000  2.000000  0.000000  0.000000
                       2.000000  2.000000  0.000000  0.000000
                       2.000000  2.000000  0.000000  0.000000
                       2.000000  2.000000  0.000000  0.000000
                       2.000000  2.000000  0.000000  0.000000
                       2.000000  2.000000  0.000000  0.000000
                       2.000000  2.000000  0.000000  0.000000
                       2.000000  2.000000  0.000000  0.000000
                       2.000000  2.000000  0.000000  0.000000
                       2.000000  2.000000  0.000000  0.000000
                       2.000000  2.000000  0.000000  0.000000
                       2.000000  2.000000  0.000000  0.000000
                       2.000000  2.000000  0.000000  0.000000
                       2.000000  2.000000  0.000000  0.000000
                       2.000000  2.000000  0.000000  0.000000
                       prtocc : prtvol=0, do not print more k-points.
           occopt           7
            rprim      0.0000000000E+00  5.0000000000E-01  5.0000000000E-01
                       5.0000000000E-01  0.0000000000E+00  5.0000000000E-01
                       5.0000000000E-01  5.0000000000E-01  0.0000000000E+00
           shiftk      5.00000000E-01  5.00000000E-01  5.00000000E-01
          spgroup         225
           symrel      1  0  0   0  1  0   0  0  1      -1  0  0   0 -1  0   0  0 -1
                       0 -1  1   0 -1  0   1 -1  0       0  1 -1   0  1  0  -1  1  0
                      -1  0  0  -1  0  1  -1  1  0       1  0  0   1  0 -1   1 -1  0
                       0  1 -1   1  0 -1   0  0 -1       0 -1  1  -1  0  1   0  0  1
                      -1  0  0  -1  1  0  -1  0  1       1  0  0   1 -1  0   1  0 -1
                       0 -1  1   1 -1  0   0 -1  0       0  1 -1  -1  1  0   0  1  0
                       1  0  0   0  0  1   0  1  0      -1  0  0   0  0 -1   0 -1  0
                       0  1 -1   0  0 -1   1  0 -1       0 -1  1   0  0  1  -1  0  1
                      -1  0  1  -1  1  0  -1  0  0       1  0 -1   1 -1  0   1  0  0
                       0 -1  0   1 -1  0   0 -1  1       0  1  0  -1  1  0   0  1 -1
                       1  0 -1   0  0 -1   0  1 -1      -1  0  1   0  0  1   0 -1  1
                       0  1  0   0  0  1   1  0  0       0 -1  0   0  0 -1  -1  0  0
                       1  0 -1   0  1 -1   0  0 -1      -1  0  1   0 -1  1   0  0  1
                       0 -1  0   0 -1  1   1 -1  0       0  1  0   0  1 -1  -1  1  0
                      -1  0  1  -1  0  0  -1  1  0       1  0 -1   1  0  0   1 -1  0
                       0  1  0   1  0  0   0  0  1       0 -1  0  -1  0  0   0  0 -1
                       0  0 -1   0  1 -1   1  0 -1       0  0  1   0 -1  1  -1  0  1
                       1 -1  0   0 -1  1   0 -1  0      -1  1  0   0  1 -1   0  1  0
                       0  0  1   1  0  0   0  1  0       0  0 -1  -1  0  0   0 -1  0
                      -1  1  0  -1  0  0  -1  0  1       1 -1  0   1  0  0   1  0 -1
                       0  0  1   0  1  0   1  0  0       0  0 -1   0 -1  0  -1  0  0
                       1 -1  0   0 -1  0   0 -1  1      -1  1  0   0  1  0   0  1 -1
                       0  0 -1   1  0 -1   0  1 -1       0  0  1  -1  0  1   0 -1  1
                      -1  1  0  -1  0  1  -1  0  0       1 -1  0   1  0 -1   1  0  0
           tolvrs      1.00000000E-10
           tsmear      1.00000000E-02 Hartree
            typat      1
              wtk        0.01172    0.01172    0.01172    0.02344    0.01172    0.01172
                         0.02344    0.01172    0.02344    0.02344    0.01172    0.01172
                         0.02344    0.01172    0.02344    0.02344    0.01172    0.02344
                         0.02344    0.02344    0.01172    0.01172    0.01172    0.02344
                         0.01172    0.02344    0.02344    0.02344    0.01172    0.02344
                         0.02344    0.02344    0.02344    0.01172    0.01172    0.01172
                         0.01172    0.01172    0.02344    0.02344    0.01172    0.02344
                         0.02344    0.02344    0.02344    0.02344    0.01172    0.01172
                         0.01172    0.01172
                       outvars : Printing only first  50 k-points.
            znucl       82.00000

================================================================================

 chkinp: machine precision is   2.2204460492503131E-16

 chkinp: Checking input parameters for consistency.
 DATA TYPE INFORMATION: 
 REAL:      Data type name: REAL(DP) 
            Kind value:      8
            Precision:      15
            Smallest nonnegligible quantity relative to 1:  0.22204460E-15
            Smallest positive number:                       0.22250739-307
            Largest representable number:                   0.17976931+309
 INTEGER:   Data type name: INTEGER(default) 
            Kind value: 4
            Bit size:   32
            Largest representable number: 2147483647
 LOGICAL:   Data type name: LOGICAL 
            Kind value: 4
 CHARACTER: Data type name: CHARACTER             Kind value: 1
 ==== OpenMP parallelism is OFF ====
 
  ==== Using MPI-1 specifications ==== 
  MPI-IO support is OFF
  xmpi_tag_ub ................   2147483647
  xmpi_bsize_ch ..............            1
  xmpi_bsize_int .............            4
  xmpi_bsize_sp ..............            4
  xmpi_bsize_dp ..............            8
  xmpi_bsize_spc .............            8
  xmpi_bsize_dpc .............           16
  xmpio_bsize_frm ............            0
  xmpi_address_kind ..........            8
  xmpi_offset_kind ...........            8
  MPI_WTICK ..................    5.7018069026074364E-007

================================================================================
== DATASET  1 ==================================================================
-   nproc =    1

 setmqgrid : COMMENT -
  The number of points "mqgrid" in reciprocal space used for the
  description of the pseudopotentials has been set automatically
  by abinit to :     3001.

 getdim_nloc : deduce lmnmax  =  14, lnmax  =   6,
                      lmnmaxso=  25, lnmaxso=   9.
 Exchange-correlation functional for the present dataset will be:
  LDA: new Teter (4/93) with spin-polarized option - ixc=1
 Citation for XC functional:
  S. Goedecker, M. Teter, J. Huetter, PRB 54, 1703 (1996)

 Unit cell volume ucvol=  2.5000000E+02 bohr^3
 Angles (23,13,12)=  6.00000000E+01  6.00000000E+01  6.00000000E+01 degrees

 getcut: wavevector=  0.0000  0.0000  0.0000  ngfft=  36  36  36
         ecut(hartree)=     30.000   => boxcut(ratio)=   2.06487
- pspini: atom type   1  psp file is 82pb.4.hgh
- pspatm: opening atomic psp file    82pb.4.hgh
- Hartwigsen-Goedecker-Hutter psp for Pb,  from PRB58, 3641 (1998)
- 82.00000   4.00000     10605                znucl, zion, pspdat
    3    1    2    0      2001   0.00000      pspcod,pspxc,lmax,lloc,mmax,r2well
 rloc=   0.6175000
 cc1 =   0.7531430; cc2 =   0.0000000; cc3 =   0.0000000; cc4 =   0.0000000
 rrs =   0.7052590; h11s=   1.9799270; h22s=  -0.1649600; h33s=  -0.8060600
 rrp =   0.8466410; h11p=   0.8644200; h22p=  -0.5409690; h33p=   0.0000000
                    k11p=   0.2077110; k22p=   0.0129480; k33p=   0.0000000
 rrd =   0.9719390; h11d=   0.3749670; h22d=   0.0000000; h33d=   0.0000000
                    k11d=   0.0292560; k22d=   0.0000000; k33d=   0.0000000
-  Local part computed in reciprocal space.

 pspatm : COMMENT -
  the projectors are not normalized,
  so that the KB energies are not consistent with 
  definition in PRB44, 8503 (1991). 
  However, this does not influence the results obtained hereafter.
 pspatm: epsatm=   12.37618897
         --- l  ekb(1:nproj) -->
             0   -1.367110    0.141978    2.479722
             1   -1.780211    2.777773
             2    4.356433
 pspatm: atomic psp has been read  and splines computed

   4.95047559E+01                                ecore*ucvol(ha*bohr**3)
   1  1  1  1  1  1  1  1  1  1  1  1  1  1  1  1  1  1  1  1  1  1  1  1
   1  1  1  1  1  1  1  1  1  1  1  1  1  1  1  1  1  1  1  1  1  1  1  1
 wfconv:     4 bands initialized randomly with npw=  1973, for ikpt=     1
 wfconv:     4 bands initialized randomly with npw=  1961, for ikpt=     2
 wfconv:     4 bands initialized randomly with npw=  1970, for ikpt=     3
 wfconv:     4 bands initialized randomly with npw=  1962, for ikpt=     4
 wfconv:     4 bands initialized randomly with npw=  1959, for ikpt=     5
 wfconv:     4 bands initialized randomly with npw=  1960, for ikpt=     6
 wfconv:     4 bands initialized randomly with npw=  1965, for ikpt=     7
 wfconv:     4 bands initialized randomly with npw=  1973, for ikpt=     8
 wfconv:     4 bands initialized randomly with npw=  1966, for ikpt=     9
 wfconv:     4 bands initialized randomly with npw=  1963, for ikpt=    10
 wfconv:     4 bands initialized randomly with npw=  1961, for ikpt=    11
 wfconv:     4 bands initialized randomly with npw=  1956, for ikpt=    12
 wfconv:     4 bands initialized randomly with npw=  1959, for ikpt=    13
 wfconv:     4 bands initialized randomly with npw=  1970, for ikpt=    14
 wfconv:     4 bands initialized randomly with npw=  1964, for ikpt=    15
 wfconv:     4 bands initialized randomly with npw=  1959, for ikpt=    16
 wfconv:     4 bands initialized randomly with npw=  1977, for ikpt=    17
 wfconv:     4 bands initialized randomly with npw=  1968, for ikpt=    18
 wfconv:     4 bands initialized randomly with npw=  1959, for ikpt=    19
 wfconv:     4 bands initialized randomly with npw=  1962, for ikpt=    20
 wfconv:     4 bands initialized randomly with npw=  1964, for ikpt=    21
 wfconv:     4 bands initialized randomly with npw=  1971, for ikpt=    22
 wfconv:     4 bands initialized randomly with npw=  1960, for ikpt=    23
 wfconv:     4 bands initialized randomly with npw=  1963, for ikpt=    24
 wfconv:     4 bands initialized randomly with npw=  1960, for ikpt=    25
 wfconv:     4 bands initialized randomly with npw=  1961, for ikpt=    26
 wfconv:     4 bands initialized randomly with npw=  1962, for ikpt=    27
 wfconv:     4 bands initialized randomly with npw=  1965, for ikpt=    28
 wfconv:     4 bands initialized randomly with npw=  1968, for ikpt=    29
 wfconv:     4 bands initialized randomly with npw=  1959, for ikpt=    30
 wfconv:     4 bands initialized randomly with npw=  1960, for ikpt=    31
 wfconv:     4 bands initialized randomly with npw=  1963, for ikpt=    32
 wfconv:     4 bands initialized randomly with npw=  1960, for ikpt=    33
 wfconv:     4 bands initialized randomly with npw=  1961, for ikpt=    34
 wfconv:     4 bands initialized randomly with npw=  1962, for ikpt=    35
 wfconv:     4 bands initialized randomly with npw=  1974, for ikpt=    36
 wfconv:     4 bands initialized randomly with npw=  1959, for ikpt=    37
 wfconv:     4 bands initialized randomly with npw=  1963, for ikpt=    38
 wfconv:     4 bands initialized randomly with npw=  1964, for ikpt=    39
 wfconv:     4 bands initialized randomly with npw=  1958, for ikpt=    40
 wfconv:     4 bands initialized randomly with npw=  1977, for ikpt=    41
 wfconv:     4 bands initialized randomly with npw=  1969, for ikpt=    42
 wfconv:     4 bands initialized randomly with npw=  1962, for ikpt=    43
 wfconv:     4 bands initialized randomly with npw=  1955, for ikpt=    44
 wfconv:     4 bands initialized randomly with npw=  1951, for ikpt=    45
 wfconv:     4 bands initialized randomly with npw=  1948, for ikpt=    46
 wfconv:     4 bands initialized randomly with npw=  1963, for ikpt=    47
 wfconv:     4 bands initialized randomly with npw=  1960, for ikpt=    48
 wfconv:     4 bands initialized randomly with npw=  1959, for ikpt=    49
 wfconv:     4 bands initialized randomly with npw=  1957, for ikpt=    50

_setup2: Arith. and geom. avg. npw (full set) are    1962.059    1962.049
 initro : for itypat=  1, take decay length=      1.2500,
 initro : indeed, coreel=     78.0000, nval=  4 and densty=  0.0000E+00.

================================================================================

 getcut: wavevector=  0.0000  0.0000  0.0000  ngfft=  36  36  36
         ecut(hartree)=     30.000   => boxcut(ratio)=   2.06487

 ewald : nr and ng are    3 and   11

 ITER STEP NUMBER     1
 vtorho : nnsclo_now=  2, note that nnsclo,dbl_nnsclo,istep=  0 0  1
 newocc : new Fermi energy is       0.082912 , with nelect=      4.000000
  Number of bissection calls =  47
 newocc : computed new occ. numbers for occopt=    7 , spin-unpolarized case.
 2.000 0.000 0.000 0.000
 2.000 0.000 0.000 0.000
 2.000 0.000 0.000 0.000
 2.000 0.000 0.000 0.000
 2.000 2.000 0.000 0.000
 2.000 0.773 0.000 0.000
 2.000 2.000 0.000 0.000
 2.000 0.000 0.000 0.000
 2.000 0.000 0.000 0.000
 2.000 0.761 0.000 0.000
 2.000 2.000 0.000 0.000
 2.000 2.000 0.000 0.000
 2.000 2.000 0.000 0.000
 2.000 2.000 0.000 0.000
 2.000 2.000 0.000 0.000
 2.000 2.000 0.000 0.000
 2.000 0.004 0.000 0.000
 2.000 0.862 0.000 0.000
 2.000 2.000 0.000 0.000
 2.000 2.000 0.000 0.000
 2.000 2.000 0.000 0.000
 2.000 2.000 0.000 0.000
 2.000 2.000 0.000 0.000
 2.000 2.000 0.000 0.000
 2.000 2.000 0.000 0.000
 2.000 2.000 0.000 0.000
 2.000 2.000 0.000 0.000
 2.000 2.000 0.000 0.000
 2.000 1.999 0.000 0.000
 2.000 2.000 0.000 0.000
 2.000 2.000 0.000 0.000
 2.000 2.000 0.588 0.000
 2.000 2.000 1.993 0.000
 2.000 1.050 0.000 0.000
 2.000 2.000 0.000 0.000
 2.000 2.000 0.000 0.000
 2.000 2.000 0.063 0.000
 2.000 2.000 0.040 0.000
 2.000 2.000 0.379 0.000
 2.000 2.000 0.334 0.000
 2.000 2.000 0.000 0.000
 2.000 2.000 0.000 0.000
 2.000 2.000 0.136 0.000
 2.000 2.000 1.939 0.000
 2.000 2.000 2.000 0.000
 2.000 2.000 2.000 0.000
 2.000 0.000 0.000 0.000
 2.000 0.000 0.000 0.000
 2.000 2.000 0.000 0.000
 2.000 2.000 0.932 0.000
 newocc : prtvol=0, stop printing more k-point informations
mkrho: echo density (plane-wave part only)
 Total charge density [el/Bohr^3]
,     Maximum=    3.6653E-02  at reduced coord.    0.8333    0.9444    0.9444
,     Minimum=    5.4497E-05  at reduced coord.    0.0000    0.0000    0.0000
,  Integrated=    4.0000E+00
 Total charge density [el/Bohr^3]
,     Maximum=    3.6653E-02  at reduced coord.    0.8333    0.9444    0.9444
,     Minimum=    5.4497E-05  at reduced coord.    0.0000    0.0000    0.0000
,  Integrated=    4.0000E+00
 ETOT  1  -3.6407355151444    -3.641E+00 1.514E-02 6.696E+00
 scprqt: <Vxc>= -2.8638957E-01 hartree

Simple mixing update:
  residual square of the potential :   4.8989758384896245

 ITER STEP NUMBER     2
 vtorho : nnsclo_now=  2, note that nnsclo,dbl_nnsclo,istep=  0 0  2
 newocc : new Fermi energy is       0.082954 , with nelect=      4.000000
  Number of bissection calls =  48
 newocc : computed new occ. numbers for occopt=    7 , spin-unpolarized case.
 2.000 0.000 0.000 0.000
 2.000 0.000 0.000 0.000
 2.000 0.000 0.000 0.000
 2.000 0.000 0.000 0.000
 2.000 2.000 0.000 0.000
 2.000 0.820 0.000 0.000
 2.000 2.000 0.000 0.000
 2.000 0.000 0.000 0.000
 2.000 0.000 0.000 0.000
 2.000 0.841 0.000 0.000
 2.000 2.000 0.000 0.000
 2.000 2.000 0.000 0.000
 2.000 2.000 0.000 0.000
 2.000 2.000 0.000 0.000
 2.000 2.000 0.000 0.000
 2.000 2.000 0.000 0.000
 2.000 0.007 0.000 0.000
 2.000 1.066 0.000 0.000
 2.000 2.000 0.000 0.000
 2.000 2.000 0.000 0.000
 2.000 2.000 0.000 0.000
 2.000 2.000 0.000 0.000
 2.000 2.000 0.000 0.000
 2.000 2.000 0.000 0.000
 2.000 2.000 0.000 0.000
 2.000 2.000 0.000 0.000
 2.000 2.000 0.000 0.000
 2.000 2.000 0.000 0.000
 2.000 1.999 0.000 0.000
 2.000 2.000 0.000 0.000
 2.000 2.000 0.000 0.000
 2.000 2.000 0.525 0.000
 2.000 2.000 1.990 0.000
 2.000 1.097 0.000 0.000
 2.000 2.000 0.000 0.000
 2.000 2.000 0.000 0.000
 2.000 2.000 0.065 0.000
 2.000 2.000 0.031 0.000
 2.000 2.000 0.330 0.000
 2.000 2.000 0.303 0.000
 2.000 2.000 0.000 0.000
 2.000 2.000 0.000 0.000
 2.000 2.000 0.111 0.000
 2.000 2.000 1.920 0.000
 2.000 2.000 2.000 0.000
 2.000 2.000 2.000 0.000
 2.000 0.000 0.000 0.000
 2.000 0.000 0.000 0.000
 2.000 2.000 0.000 0.000
 2.000 2.000 0.922 0.000
 newocc : prtvol=0, stop printing more k-point informations
mkrho: echo density (plane-wave part only)
 Total charge density [el/Bohr^3]
,     Maximum=    3.6772E-02  at reduced coord.    0.8333    0.9444    0.9444
,     Minimum=    3.3163E-05  at reduced coord.    0.0000    0.0000    0.0000
,  Integrated=    4.0000E+00
 Total charge density [el/Bohr^3]
,     Maximum=    3.6772E-02  at reduced coord.    0.8333    0.9444    0.9444
,     Minimum=    3.3163E-05  at reduced coord.    0.0000    0.0000    0.0000
,  Integrated=    4.0000E+00
 ETOT  2  -3.6436120615457    -2.877E-03 9.175E-08 2.364E-01
 scprqt: <Vxc>= -2.8625079E-01 hartree

 Pulay update with  1 previous iterations:
 mixing of old trial potential : alpha(m:m-4)=   1.19     -0.185

 ITER STEP NUMBER     3
 vtorho : nnsclo_now=  1, note that nnsclo,dbl_nnsclo,istep=  0 0  3
 newocc : new Fermi energy is       0.082525 , with nelect=      4.000000
  Number of bissection calls =  48
 newocc : computed new occ. numbers for occopt=    7 , spin-unpolarized case.
 2.000 0.000 0.000 0.000
 2.000 0.000 0.000 0.000
 2.000 0.000 0.000 0.000
 2.000 0.000 0.000 0.000
 2.000 2.000 0.000 0.000
 2.000 0.837 0.000 0.000
 2.000 2.000 0.000 0.000
 2.000 0.000 0.000 0.000
 2.000 0.000 0.000 0.000
 2.000 0.863 0.000 0.000
 2.000 2.000 0.000 0.000
 2.000 2.000 0.000 0.000
 2.000 2.000 0.000 0.000
 2.000 2.000 0.000 0.000
 2.000 2.000 0.000 0.000
 2.000 2.000 0.000 0.000
 2.000 0.008 0.000 0.000
 2.000 1.094 0.000 0.000
 2.000 2.000 0.000 0.000
 2.000 2.000 0.000 0.000
 2.000 2.000 0.000 0.000
 2.000 2.000 0.000 0.000
 2.000 2.000 0.000 0.000
 2.000 2.000 0.000 0.000
 2.000 2.000 0.000 0.000
 2.000 2.000 0.000 0.000
 2.000 2.000 0.000 0.000
 2.000 2.000 0.000 0.000
 2.000 2.000 0.000 0.000
 2.000 2.000 0.000 0.000
 2.000 2.000 0.000 0.000
 2.000 2.000 0.514 0.000
 2.000 2.000 1.990 0.000
 2.000 1.110 0.000 0.000
 2.000 2.000 0.000 0.000
 2.000 2.000 0.000 0.000
 2.000 2.000 0.063 0.000
 2.000 2.000 0.030 0.000
 2.000 2.000 0.322 0.000
 2.000 2.000 0.299 0.000
 2.000 2.000 0.000 0.000
 2.000 2.000 0.000 0.000
 2.000 2.000 0.107 0.000
 2.000 2.000 1.916 0.000
 2.000 2.000 2.000 0.000
 2.000 2.000 2.000 0.000
 2.000 0.000 0.000 0.000
 2.000 0.000 0.000 0.000
 2.000 2.000 0.000 0.000
 2.000 2.000 0.907 0.000
 newocc : prtvol=0, stop printing more k-point informations
mkrho: echo density (plane-wave part only)
 Total charge density [el/Bohr^3]
,     Maximum=    3.6928E-02  at reduced coord.    0.8333    0.9444    0.9444
,     Minimum=    3.1774E-05  at reduced coord.    0.0000    0.0000    0.0000
,  Integrated=    4.0000E+00
 Total charge density [el/Bohr^3]
,     Maximum=    3.6928E-02  at reduced coord.    0.8333    0.9444    0.9444
,     Minimum=    3.1774E-05  at reduced coord.    0.0000    0.0000    0.0000
,  Integrated=    4.0000E+00
 ETOT  3  -3.6436282330311    -1.617E-05 7.321E-07 1.185E-03
 scprqt: <Vxc>= -2.8614409E-01 hartree

 Pulay update with  2 previous iterations:
 mixing of old trial potential : alpha(m:m-4)=   1.17     -0.203      0.293E-01
forstrnps: loop on k-points and spins done in parallel
  strhar : before mpi_comm, harstr=   6.4883202797604770E-004   6.4883202797604770E-004   6.4883202797605941E-004  -1.3552527156068805E-020   0.0000000000000000        1.3552527156068805E-020
  strhar : after mpi_comm, harstr=   6.4883202797604770E-004   6.4883202797604770E-004   6.4883202797605941E-004  -1.3552527156068805E-020   0.0000000000000000        1.3552527156068805E-020
  strhar : ehart,ucvol=   7.7448618366548011E-002   250.00000000000000     

 Cartesian components of stress tensor (hartree/bohr^3)
  sigma(1 1)=  2.51558556E-04  sigma(3 2)=  0.00000000E+00
  sigma(2 2)=  2.51558556E-04  sigma(3 1)=  0.00000000E+00
  sigma(3 3)=  2.51558556E-04  sigma(2 1)=  0.00000000E+00


 scprqt:  WARNING -
  nstep=    3 was not enough SCF cycles to converge;
  potential residual=  1.185E-03 exceeds tolvrs=  1.000E-10

   1  1  1  1  1  1  1  1  1  1  1  1  1  1  1  1  1  1  1  1  1  1  1  1
   1  1  1  1  1  1  1  1  1  1  1  1  1  1  1  1  1  1  1  1  1  1  1  1
 ioarr: writing density data
ioarr: file name is tbasepar_1o_DEN
ioarr: data written to disk file tbasepar_1o_DEN
================================================================================

 ----iterations are completed or convergence reached----


 outwf: write wavefunction to file tbasepar_1o_WFK, with accesswff -1
 leave_test : synchronization done...
 outwf with iomode: -1, cpu:     0.05, wall:     0.07

 Cartesian components of stress tensor (hartree/bohr^3)
  sigma(1 1)=  2.51558556E-04  sigma(3 2)=  0.00000000E+00
  sigma(2 2)=  2.51558556E-04  sigma(3 1)=  0.00000000E+00
  sigma(3 3)=  2.51558556E-04  sigma(2 1)=  0.00000000E+00

-Cartesian components of stress tensor (GPa)         [Pressure= -7.4011E+00 GPa]
- sigma(1 1)=  7.40110701E+00  sigma(3 2)=  0.00000000E+00
- sigma(2 2)=  7.40110701E+00  sigma(3 1)=  0.00000000E+00
- sigma(3 3)=  7.40110701E+00  sigma(2 1)=  0.00000000E+00

== END DATASET(S) ==============================================================
================================================================================
  
 -outvars: echo values of variables after computation  --------
 
 These variables are accessible in NetCDF format (tbasepar_1o_OUT.nc)

            acell      1.0000000000E+01  1.0000000000E+01  1.0000000000E+01 Bohr
              amu      2.07200000E+02
             ecut      3.00000000E+01 Hartree
           etotal     -3.6436282330E+00
            fcart     -0.0000000000E+00 -0.0000000000E+00 -0.0000000000E+00
              kpt     -6.25000000E-02 -1.25000000E-01  0.00000000E+00
                      -6.25000000E-02 -2.50000000E-01  0.00000000E+00
                      -1.25000000E-01 -1.87500000E-01  0.00000000E+00
                      -6.25000000E-02 -1.87500000E-01  6.25000000E-02
                      -6.25000000E-02 -3.75000000E-01  0.00000000E+00
                      -1.25000000E-01 -3.12500000E-01  0.00000000E+00
                      -6.25000000E-02 -3.12500000E-01  6.25000000E-02
                      -1.87500000E-01 -2.50000000E-01  0.00000000E+00
                      -1.25000000E-01 -2.50000000E-01  6.25000000E-02
                      -6.25000000E-02 -2.50000000E-01  1.25000000E-01
                      -6.25000000E-02  5.00000000E-01  0.00000000E+00
                      -1.25000000E-01 -4.37500000E-01  0.00000000E+00
                      -6.25000000E-02 -4.37500000E-01  6.25000000E-02
                      -1.87500000E-01 -3.75000000E-01  0.00000000E+00
                      -1.25000000E-01 -3.75000000E-01  6.25000000E-02
                      -6.25000000E-02 -3.75000000E-01  1.25000000E-01
                      -2.50000000E-01 -3.12500000E-01  0.00000000E+00
                      -1.87500000E-01 -3.12500000E-01  6.25000000E-02
                      -1.25000000E-01 -3.12500000E-01  1.25000000E-01
                      -6.25000000E-02 -3.12500000E-01  1.87500000E-01
                      -6.25000000E-02  3.75000000E-01  0.00000000E+00
                      -1.25000000E-01  4.37500000E-01  0.00000000E+00
                      -1.87500000E-01  5.00000000E-01  0.00000000E+00
                      -1.25000000E-01  5.00000000E-01  6.25000000E-02
                      -2.50000000E-01 -4.37500000E-01  0.00000000E+00
                      -1.87500000E-01 -4.37500000E-01  6.25000000E-02
                      -1.25000000E-01 -4.37500000E-01  1.25000000E-01
                      -6.25000000E-02 -4.37500000E-01  1.87500000E-01
                      -3.12500000E-01 -3.75000000E-01  0.00000000E+00
                      -2.50000000E-01 -3.75000000E-01  6.25000000E-02
                      -1.87500000E-01 -3.75000000E-01  1.25000000E-01
                      -1.25000000E-01 -3.75000000E-01  1.87500000E-01
                      -6.25000000E-02 -3.75000000E-01  2.50000000E-01
                      -6.25000000E-02  2.50000000E-01  0.00000000E+00
                      -1.25000000E-01  3.12500000E-01  0.00000000E+00
                      -1.87500000E-01  3.75000000E-01  0.00000000E+00
                      -2.50000000E-01  4.37500000E-01  0.00000000E+00
                      -3.12500000E-01  5.00000000E-01  0.00000000E+00
                      -2.50000000E-01  5.00000000E-01  6.25000000E-02
                      -1.87500000E-01  5.00000000E-01  1.25000000E-01
                      -3.75000000E-01 -4.37500000E-01  0.00000000E+00
                      -3.12500000E-01 -4.37500000E-01  6.25000000E-02
                      -2.50000000E-01 -4.37500000E-01  1.25000000E-01
                      -1.87500000E-01 -4.37500000E-01  1.87500000E-01
                      -1.25000000E-01 -4.37500000E-01  2.50000000E-01
                      -6.25000000E-02 -4.37500000E-01  3.12500000E-01
                      -6.25000000E-02  1.25000000E-01  0.00000000E+00
                      -1.25000000E-01  1.87500000E-01  0.00000000E+00
                      -1.87500000E-01  2.50000000E-01  0.00000000E+00
                      -2.50000000E-01  3.12500000E-01  0.00000000E+00
                       outvar_i_n : Printing only first  50 k-points.
         kptrlatt        8   -8    8     -8    8    8     -8   -8    8
          kptrlen      8.00000000E+01
P           mkmem          60
            natom           1
            nband           4
            ngfft          36      36      36
             nkpt          60
            nstep           3
             nsym          48
           ntypat           1
              occ      2.000000  0.000000  0.000000  0.000000
                       2.000000  0.000001  0.000000  0.000000
                       2.000000  0.000000  0.000000  0.000000
                       2.000000  0.000000  0.000000  0.000000
                       2.000000  2.000000  0.000000  0.000000
                       2.000000  0.837006  0.000000  0.000000
                       2.000000  1.999992  0.000000  0.000000
                       2.000000  0.000000  0.000000  0.000000
                       2.000000  0.000003  0.000000  0.000000
                       2.000000  0.863057  0.000000  0.000000
                       2.000000  2.000000  0.000000  0.000000
                       2.000000  2.000000  0.000000  0.000000
                       2.000000  2.000000  0.000000  0.000000
                       2.000000  1.999830  0.000000  0.000000
                       2.000000  2.000000  0.000000  0.000000
                       2.000000  2.000000  0.000000  0.000000
                       2.000000  0.007927  0.000000  0.000000
                       2.000000  1.093506  0.000000  0.000000
                       2.000000  1.999709  0.000000  0.000000
                       2.000000  2.000000  0.000273  0.000000
                       2.000000  2.000000  0.000000  0.000000
                       2.000000  2.000000  0.000000  0.000000
                       2.000000  2.000000  0.000000  0.000000
                       2.000000  2.000000  0.000000  0.000000
                       2.000000  2.000000  0.000000  0.000000
                       2.000000  2.000000  0.000000  0.000000
                       2.000000  2.000000  0.000000  0.000000
                       2.000000  2.000000  0.000245  0.000000
                       2.000000  1.999503  0.000000  0.000000
                       2.000000  1.999997  0.000000  0.000000
                       2.000000  2.000000  0.000008  0.000000
                       2.000000  2.000000  0.513744  0.000000
                       2.000000  2.000000  1.989803  0.000000
                       2.000000  1.110208  0.000000  0.000000
                       2.000000  2.000000  0.000000  0.000000
                       2.000000  2.000000  0.000000  0.000000
                       2.000000  2.000000  0.063370  0.000000
                       2.000000  2.000000  0.030006  0.000000
                       2.000000  2.000000  0.322332  0.000000
                       2.000000  2.000000  0.299191  0.000000
                       2.000000  2.000000  0.000000  0.000000
                       2.000000  2.000000  0.000000  0.000000
                       2.000000  2.000000  0.107083  0.000000
                       2.000000  2.000000  1.916287  0.000000
                       2.000000  2.000000  1.999962  0.000000
                       2.000000  2.000000  1.999828  0.000000
                       2.000000  0.000000  0.000000  0.000000
                       2.000000  0.000002  0.000000  0.000000
                       2.000000  1.999813  0.000000  0.000000
                       2.000000  2.000000  0.907237  0.000000
                       prtocc : prtvol=0, do not print more k-points.
           occopt           7
            rprim      0.0000000000E+00  5.0000000000E-01  5.0000000000E-01
                       5.0000000000E-01  0.0000000000E+00  5.0000000000E-01
                       5.0000000000E-01  5.0000000000E-01  0.0000000000E+00
           shiftk      5.00000000E-01  5.00000000E-01  5.00000000E-01
          spgroup         225
           strten      2.5155855640E-04  2.5155855640E-04  2.5155855640E-04
                       0.0000000000E+00  0.0000000000E+00  0.0000000000E+00
           symrel      1  0  0   0  1  0   0  0  1      -1  0  0   0 -1  0   0  0 -1
                       0 -1  1   0 -1  0   1 -1  0       0  1 -1   0  1  0  -1  1  0
                      -1  0  0  -1  0  1  -1  1  0       1  0  0   1  0 -1   1 -1  0
                       0  1 -1   1  0 -1   0  0 -1       0 -1  1  -1  0  1   0  0  1
                      -1  0  0  -1  1  0  -1  0  1       1  0  0   1 -1  0   1  0 -1
                       0 -1  1   1 -1  0   0 -1  0       0  1 -1  -1  1  0   0  1  0
                       1  0  0   0  0  1   0  1  0      -1  0  0   0  0 -1   0 -1  0
                       0  1 -1   0  0 -1   1  0 -1       0 -1  1   0  0  1  -1  0  1
                      -1  0  1  -1  1  0  -1  0  0       1  0 -1   1 -1  0   1  0  0
                       0 -1  0   1 -1  0   0 -1  1       0  1  0  -1  1  0   0  1 -1
                       1  0 -1   0  0 -1   0  1 -1      -1  0  1   0  0  1   0 -1  1
                       0  1  0   0  0  1   1  0  0       0 -1  0   0  0 -1  -1  0  0
                       1  0 -1   0  1 -1   0  0 -1      -1  0  1   0 -1  1   0  0  1
                       0 -1  0   0 -1  1   1 -1  0       0  1  0   0  1 -1  -1  1  0
                      -1  0  1  -1  0  0  -1  1  0       1  0 -1   1  0  0   1 -1  0
                       0  1  0   1  0  0   0  0  1       0 -1  0  -1  0  0   0  0 -1
                       0  0 -1   0  1 -1   1  0 -1       0  0  1   0 -1  1  -1  0  1
                       1 -1  0   0 -1  1   0 -1  0      -1  1  0   0  1 -1   0  1  0
                       0  0  1   1  0  0   0  1  0       0  0 -1  -1  0  0   0 -1  0
                      -1  1  0  -1  0  0  -1  0  1       1 -1  0   1  0  0   1  0 -1
                       0  0  1   0  1  0   1  0  0       0  0 -1   0 -1  0  -1  0  0
                       1 -1  0   0 -1  0   0 -1  1      -1  1  0   0  1  0   0  1 -1
                       0  0 -1   1  0 -1   0  1 -1       0  0  1  -1  0  1   0 -1  1
                      -1  1  0  -1  0  1  -1  0  0       1 -1  0   1  0 -1   1  0  0
           tolvrs      1.00000000E-10
           tsmear      1.00000000E-02 Hartree
            typat      1
              wtk        0.01172    0.01172    0.01172    0.02344    0.01172    0.01172
                         0.02344    0.01172    0.02344    0.02344    0.01172    0.01172
                         0.02344    0.01172    0.02344    0.02344    0.01172    0.02344
                         0.02344    0.02344    0.01172    0.01172    0.01172    0.02344
                         0.01172    0.02344    0.02344    0.02344    0.01172    0.02344
                         0.02344    0.02344    0.02344    0.01172    0.01172    0.01172
                         0.01172    0.01172    0.02344    0.02344    0.01172    0.02344
                         0.02344    0.02344    0.02344    0.02344    0.01172    0.01172
                         0.01172    0.01172
                       outvars : Printing only first  50 k-points.
            znucl       82.00000

================================================================================
  

================================================================================

 Suggested references for the acknowledgment of ABINIT usage.

 The users of ABINIT have little formal obligations with respect to the ABINIT group
 (those specified in the GNU General Public License, http://www.gnu.org/copyleft/gpl.txt).
 However, it is common practice in the scientific literature,
 to acknowledge the efforts of people that have made the research possible.
 In this spirit, please find below suggested citations of work written by ABINIT developers,
 corresponding to implementations inside of ABINIT that you have used in the present run.
 Note also that it will be of great value to readers of publications presenting these results,
 to read papers enabling them to understand the theoretical formalism and details
 of the ABINIT implementation.
 For information on why they are suggested, see also http://www.abinit.org/about/?text=acknowledgments.

 [1] ABINIT : First-principles approach of materials and nanosystem properties.
 X. Gonze, B. Amadon, P.-M. Anglade, J.-M. Beuken, F. Bottin, P. Boulanger, F. Bruneval,
 D. Caliste, R. Caracas, M. Cote, T. Deutsch, L. Genovese, Ph. Ghosez, M. Giantomassi
 S. Goedecker, D.R. Hamann, P. Hermet, F. Jollet, G. Jomard, S. Leroux, M. Mancini, S. Mazevet,
 M.J.T. Oliveira, G. Onida, Y. Pouillon, T. Rangel, G.-M. Rignanese, D. Sangalli, R. Shaltaf,
 M. Torrent, M.J. Verstraete, G. Zerah, J.W. Zwanziger
 Computer Phys. Comm. 180, 2582-2615 (2009).
 Comment : the third generic paper describing the ABINIT project.
 Note that a version of this paper, that is not formatted for Computer Phys. Comm. 
 is available at http://www.abinit.org/about/ABINIT_CPC_v10.pdf .
 The licence allows the authors to put it on the Web.

 [2] A brief introduction to the ABINIT software package.
 X. Gonze, G.-M. Rignanese, M. Verstraete, J.-M. Beuken, Y. Pouillon, R. Caracas, F. Jollet,
 M. Torrent, G. Zerah, M. Mikami, Ph. Ghosez, M. Veithen, J.-Y. Raty, V. Olevano, F. Bruneval,
 L. Reining, R. Godby, G. Onida, D.R. Hamann, and D.C. Allan.
 Z. Kristallogr. 220, 558-562 (2005).
 Comment : the second generic paper describing the ABINIT project. Note that this paper
 should be cited especially if you are using the GW part of ABINIT, as several authors
 of this part are not in the list of authors of the first or third paper.
 The .pdf of the latter paper is available at http://www.abinit.org/about/zfk_0505-06_558-562.pdf.
 Note that it should not redistributed (Copyright by Oldenburg Wissenshaftverlag,
 the licence allows the authors to put it on the Web).


 And optionally :

 [3] First-principles computation of material properties : the ABINIT software project. 
 X. Gonze, J.-M. Beuken, R. Caracas, F. Detraux, M. Fuchs, G.-M. Rignanese, L. Sindic,
 M. Verstraete, G. Zerah, F. Jollet, M. Torrent, A. Roy, M. Mikami, Ph. Ghosez, J.-Y. Raty, D.C. Allan.
 Computational Materials Science 25, 478-492 (2002). http://dx.doi.org/10.1016/S0927-0256(02)00325-7
 Comment : the original paper describing the ABINIT project.

 [4] Fast radix 2, 3, 4 and 5 kernels for Fast Fourier Transformations
 on computers with overlapping multiply-add instructions.
 S. Goedecker, SIAM J. on Scientific Computing 18, 1605 (1997).
 Proc.   0 individual time (sec): cpu=         16.6  wall=         17.1

 Calculation completed.
.Delivered    5 WARNINGs and   3 COMMENTs to log file.
