
.Version 7.4.3 of ABINIT 
.(MPI version, prepared for a i686_cygwin_gnu4.7 computer) 

.Copyright (C) 1998-2013 ABINIT group . 
 ABINIT comes with ABSOLUTELY NO WARRANTY.
 It is free software, and you are welcome to redistribute it
 under certain conditions (GNU General Public License,
 see ~abinit/COPYING or http://www.gnu.org/copyleft/gpl.txt).

 ABINIT is a project of the Universite Catholique de Louvain,
 Corning Inc. and other collaborators, see ~abinit/doc/developers/contributors.txt .
 Please read ~abinit/doc/users/acknowledgments.html for suggested
 acknowledgments of the ABINIT effort.
 For more information, see http://www.abinit.org .

.Starting date : Mon  4 Jun 2018.
- ( at 13h06 )
  

 herald :  WARNING -
  The starting date is more than 3 years after the initial release
  of this version of ABINIT, namely Aug 2013.
  This version of ABINIT is not supported anymore.
  Action : please, switch to a more recent version of ABINIT.
- input  file    -> tbasepar_1.in
- output file    -> tbasepar_1.out
- root for input  files -> tbasepar_1i
- root for output files -> tbasepar_1o


 Symmetries : space group Fm -3 m (#225); Bravais cF (face-center cubic)
================================================================================
 Values of the parameters that define the memory need of the present run
   intxc =         0  ionmov =         0    iscf =         7 xclevel =         1
  lmnmax =         6   lnmax =         6   mband =         4  mffmem =         1
P  mgfft =        36   mkmem =        60 mpssoang=         3     mpw =      1977
  mqgrid =      3001   natom =         1    nfft =     46656    nkpt =        60
  nloalg =         4  nspden =         1 nspinor =         1  nsppol =         1
    nsym =        48  n1xccc =         0  ntypat =         1  occopt =         7
================================================================================
P This job should need less than                      23.239 Mbytes of memory.
  Rough estimation (10% accuracy) of disk space for files :
_ WF disk file :      7.242 Mbytes ; DEN or POT disk file :      0.358 Mbytes.
================================================================================

--------------------------------------------------------------------------------
------------- Echo of variables that govern the present computation ------------
--------------------------------------------------------------------------------
-
- outvars: echo of selected default values                                      
-   accesswff0 =  0 , fftalg0 =112 , wfoptalg0 =  0
-
- outvars: echo of global parameters not present in the input file              
-  max_nthreads =    0
-
 -outvars: echo values of preprocessed input variables --------
            acell      1.0000000000E+01  1.0000000000E+01  1.0000000000E+01 Bohr
              amu      2.07200000E+02
             ecut      3.00000000E+01 Hartree
              kpt     -6.25000000E-02 -1.25000000E-01  0.00000000E+00
                      -6.25000000E-02 -2.50000000E-01  0.00000000E+00
                      -1.25000000E-01 -1.87500000E-01  0.00000000E+00
                      -6.25000000E-02 -1.87500000E-01  6.25000000E-02
                      -6.25000000E-02 -3.75000000E-01  0.00000000E+00
                      -1.25000000E-01 -3.12500000E-01  0.00000000E+00
                      -6.25000000E-02 -3.12500000E-01  6.25000000E-02
                      -1.87500000E-01 -2.50000000E-01  0.00000000E+00
                      -1.25000000E-01 -2.50000000E-01  6.25000000E-02
                      -6.25000000E-02 -2.50000000E-01  1.25000000E-01
                      -6.25000000E-02  5.00000000E-01  0.00000000E+00
                      -1.25000000E-01 -4.37500000E-01  0.00000000E+00
                      -6.25000000E-02 -4.37500000E-01  6.25000000E-02
                      -1.87500000E-01 -3.75000000E-01  0.00000000E+00
                      -1.25000000E-01 -3.75000000E-01  6.25000000E-02
                      -6.25000000E-02 -3.75000000E-01  1.25000000E-01
                      -2.50000000E-01 -3.12500000E-01  0.00000000E+00
                      -1.87500000E-01 -3.12500000E-01  6.25000000E-02
                      -1.25000000E-01 -3.12500000E-01  1.25000000E-01
                      -6.25000000E-02 -3.12500000E-01  1.87500000E-01
                      -6.25000000E-02  3.75000000E-01  0.00000000E+00
                      -1.25000000E-01  4.37500000E-01  0.00000000E+00
                      -1.87500000E-01  5.00000000E-01  0.00000000E+00
                      -1.25000000E-01  5.00000000E-01  6.25000000E-02
                      -2.50000000E-01 -4.37500000E-01  0.00000000E+00
                      -1.87500000E-01 -4.37500000E-01  6.25000000E-02
                      -1.25000000E-01 -4.37500000E-01  1.25000000E-01
                      -6.25000000E-02 -4.37500000E-01  1.87500000E-01
                      -3.12500000E-01 -3.75000000E-01  0.00000000E+00
                      -2.50000000E-01 -3.75000000E-01  6.25000000E-02
                      -1.87500000E-01 -3.75000000E-01  1.25000000E-01
                      -1.25000000E-01 -3.75000000E-01  1.87500000E-01
                      -6.25000000E-02 -3.75000000E-01  2.50000000E-01
                      -6.25000000E-02  2.50000000E-01  0.00000000E+00
                      -1.25000000E-01  3.12500000E-01  0.00000000E+00
                      -1.87500000E-01  3.75000000E-01  0.00000000E+00
                      -2.50000000E-01  4.37500000E-01  0.00000000E+00
                      -3.12500000E-01  5.00000000E-01  0.00000000E+00
                      -2.50000000E-01  5.00000000E-01  6.25000000E-02
                      -1.87500000E-01  5.00000000E-01  1.25000000E-01
                      -3.75000000E-01 -4.37500000E-01  0.00000000E+00
                      -3.12500000E-01 -4.37500000E-01  6.25000000E-02
                      -2.50000000E-01 -4.37500000E-01  1.25000000E-01
                      -1.87500000E-01 -4.37500000E-01  1.87500000E-01
                      -1.25000000E-01 -4.37500000E-01  2.50000000E-01
                      -6.25000000E-02 -4.37500000E-01  3.12500000E-01
                      -6.25000000E-02  1.25000000E-01  0.00000000E+00
                      -1.25000000E-01  1.87500000E-01  0.00000000E+00
                      -1.87500000E-01  2.50000000E-01  0.00000000E+00
                      -2.50000000E-01  3.12500000E-01  0.00000000E+00
                       outvar_i_n : Printing only first  50 k-points.
         kptrlatt        8   -8    8     -8    8    8     -8   -8    8
          kptrlen      8.00000000E+01
P           mkmem          60
            natom           1
            nband           4
            ngfft          36      36      36
             nkpt          60
            nstep           3
             nsym          48
           ntypat           1
              occ      2.000000  2.000000  0.000000  0.000000
                       2.000000  2.000000  0.000000  0.000000
                       2.000000  2.000000  0.000000  0.000000
                       2.000000  2.000000  0.000000  0.000000
                       2.000000  2.000000  0.000000  0.000000
                       2.000000  2.000000  0.000000  0.000000
                       2.000000  2.000000  0.000000  0.000000
                       2.000000  2.000000  0.000000  0.000000
                       2.000000  2.000000  0.000000  0.000000
                       2.000000  2.000000  0.000000  0.000000
                       2.000000  2.000000  0.000000  0.000000
                       2.000000  2.000000  0.000000  0.000000
                       2.000000  2.000000  0.000000  0.000000
                       2.000000  2.000000  0.000000  0.000000
                       2.000000  2.000000  0.000000  0.000000
                       2.000000  2.000000  0.000000  0.000000
                       2.000000  2.000000  0.000000  0.000000
                       2.000000  2.000000  0.000000  0.000000
                       2.000000  2.000000  0.000000  0.000000
                       2.000000  2.000000  0.000000  0.000000
                       2.000000  2.000000  0.000000  0.000000
                       2.000000  2.000000  0.000000  0.000000
                       2.000000  2.000000  0.000000  0.000000
                       2.000000  2.000000  0.000000  0.000000
                       2.000000  2.000000  0.000000  0.000000
                       2.000000  2.000000  0.000000  0.000000
                       2.000000  2.000000  0.000000  0.000000
                       2.000000  2.000000  0.000000  0.000000
                       2.000000  2.000000  0.000000  0.000000
                       2.000000  2.000000  0.000000  0.000000
                       2.000000  2.000000  0.000000  0.000000
                       2.000000  2.000000  0.000000  0.000000
                       2.000000  2.000000  0.000000  0.000000
                       2.000000  2.000000  0.000000  0.000000
                       2.000000  2.000000  0.000000  0.000000
                       2.000000  2.000000  0.000000  0.000000
                       2.000000  2.000000  0.000000  0.000000
                       2.000000  2.000000  0.000000  0.000000
                       2.000000  2.000000  0.000000  0.000000
                       2.000000  2.000000  0.000000  0.000000
                       2.000000  2.000000  0.000000  0.000000
                       2.000000  2.000000  0.000000  0.000000
                       2.000000  2.000000  0.000000  0.000000
                       2.000000  2.000000  0.000000  0.000000
                       2.000000  2.000000  0.000000  0.000000
                       2.000000  2.000000  0.000000  0.000000
                       2.000000  2.000000  0.000000  0.000000
                       2.000000  2.000000  0.000000  0.000000
                       2.000000  2.000000  0.000000  0.000000
                       2.000000  2.000000  0.000000  0.000000
                       prtocc : prtvol=0, do not print more k-points.
           occopt           7
            rprim      0.0000000000E+00  5.0000000000E-01  5.0000000000E-01
                       5.0000000000E-01  0.0000000000E+00  5.0000000000E-01
                       5.0000000000E-01  5.0000000000E-01  0.0000000000E+00
           shiftk      5.00000000E-01  5.00000000E-01  5.00000000E-01
          spgroup         225
           symrel      1  0  0   0  1  0   0  0  1      -1  0  0   0 -1  0   0  0 -1
                       0 -1  1   0 -1  0   1 -1  0       0  1 -1   0  1  0  -1  1  0
                      -1  0  0  -1  0  1  -1  1  0       1  0  0   1  0 -1   1 -1  0
                       0  1 -1   1  0 -1   0  0 -1       0 -1  1  -1  0  1   0  0  1
                      -1  0  0  -1  1  0  -1  0  1       1  0  0   1 -1  0   1  0 -1
                       0 -1  1   1 -1  0   0 -1  0       0  1 -1  -1  1  0   0  1  0
                       1  0  0   0  0  1   0  1  0      -1  0  0   0  0 -1   0 -1  0
                       0  1 -1   0  0 -1   1  0 -1       0 -1  1   0  0  1  -1  0  1
                      -1  0  1  -1  1  0  -1  0  0       1  0 -1   1 -1  0   1  0  0
                       0 -1  0   1 -1  0   0 -1  1       0  1  0  -1  1  0   0  1 -1
                       1  0 -1   0  0 -1   0  1 -1      -1  0  1   0  0  1   0 -1  1
                       0  1  0   0  0  1   1  0  0       0 -1  0   0  0 -1  -1  0  0
                       1  0 -1   0  1 -1   0  0 -1      -1  0  1   0 -1  1   0  0  1
                       0 -1  0   0 -1  1   1 -1  0       0  1  0   0  1 -1  -1  1  0
                      -1  0  1  -1  0  0  -1  1  0       1  0 -1   1  0  0   1 -1  0
                       0  1  0   1  0  0   0  0  1       0 -1  0  -1  0  0   0  0 -1
                       0  0 -1   0  1 -1   1  0 -1       0  0  1   0 -1  1  -1  0  1
                       1 -1  0   0 -1  1   0 -1  0      -1  1  0   0  1 -1   0  1  0
                       0  0  1   1  0  0   0  1  0       0  0 -1  -1  0  0   0 -1  0
                      -1  1  0  -1  0  0  -1  0  1       1 -1  0   1  0  0   1  0 -1
                       0  0  1   0  1  0   1  0  0       0  0 -1   0 -1  0  -1  0  0
                       1 -1  0   0 -1  0   0 -1  1      -1  1  0   0  1  0   0  1 -1
                       0  0 -1   1  0 -1   0  1 -1       0  0  1  -1  0  1   0 -1  1
                      -1  1  0  -1  0  1  -1  0  0       1 -1  0   1  0 -1   1  0  0
           tolvrs      1.00000000E-10
           tsmear      1.00000000E-02 Hartree
            typat      1
              wtk        0.01172    0.01172    0.01172    0.02344    0.01172    0.01172
                         0.02344    0.01172    0.02344    0.02344    0.01172    0.01172
                         0.02344    0.01172    0.02344    0.02344    0.01172    0.02344
                         0.02344    0.02344    0.01172    0.01172    0.01172    0.02344
                         0.01172    0.02344    0.02344    0.02344    0.01172    0.02344
                         0.02344    0.02344    0.02344    0.01172    0.01172    0.01172
                         0.01172    0.01172    0.02344    0.02344    0.01172    0.02344
                         0.02344    0.02344    0.02344    0.02344    0.01172    0.01172
                         0.01172    0.01172
                       outvars : Printing only first  50 k-points.
            znucl       82.00000

================================================================================

 chkinp: Checking input parameters for consistency.

================================================================================
== DATASET  1 ==================================================================
-   nproc =    1

 Exchange-correlation functional for the present dataset will be:
  LDA: new Teter (4/93) with spin-polarized option - ixc=1
 Citation for XC functional:
  S. Goedecker, M. Teter, J. Huetter, PRB 54, 1703 (1996)

 Real(R)+Recip(G) space primitive vectors, cartesian coordinates (Bohr,Bohr^-1):
 R(1)=  0.0000000  5.0000000  5.0000000  G(1)= -0.1000000  0.1000000  0.1000000
 R(2)=  5.0000000  0.0000000  5.0000000  G(2)=  0.1000000 -0.1000000  0.1000000
 R(3)=  5.0000000  5.0000000  0.0000000  G(3)=  0.1000000  0.1000000 -0.1000000
 Unit cell volume ucvol=  2.5000000E+02 bohr^3
 Angles (23,13,12)=  6.00000000E+01  6.00000000E+01  6.00000000E+01 degrees

 getcut: wavevector=  0.0000  0.0000  0.0000  ngfft=  36  36  36
         ecut(hartree)=     30.000   => boxcut(ratio)=   2.06487

--- Pseudopotential description ------------------------------------------------
- pspini: atom type   1  psp file is 82pb.4.hgh
- pspatm: opening atomic psp file    82pb.4.hgh
- Hartwigsen-Goedecker-Hutter psp for Pb,  from PRB58, 3641 (1998)
- 82.00000   4.00000     10605                znucl, zion, pspdat
    3    1    2    0      2001   0.00000      pspcod,pspxc,lmax,lloc,mmax,r2well
 rloc=   0.6175000
 cc1 =   0.7531430; cc2 =   0.0000000; cc3 =   0.0000000; cc4 =   0.0000000
 rrs =   0.7052590; h11s=   1.9799270; h22s=  -0.1649600; h33s=  -0.8060600
 rrp =   0.8466410; h11p=   0.8644200; h22p=  -0.5409690; h33p=   0.0000000
                    k11p=   0.2077110; k22p=   0.0129480; k33p=   0.0000000
 rrd =   0.9719390; h11d=   0.3749670; h22d=   0.0000000; h33d=   0.0000000
                    k11d=   0.0292560; k22d=   0.0000000; k33d=   0.0000000
-  Local part computed in reciprocal space.

 pspatm : COMMENT -
  the projectors are not normalized,
  so that the KB energies are not consistent with 
  definition in PRB44, 8503 (1991). 
  However, this does not influence the results obtained hereafter.
 pspatm: epsatm=   12.37618897
         --- l  ekb(1:nproj) -->
             0   -1.367110    0.141978    2.479722
             1   -1.780211    2.777773
             2    4.356433
 pspatm: atomic psp has been read  and splines computed

   4.95047559E+01                                ecore*ucvol(ha*bohr**3)
--------------------------------------------------------------------------------

P newkpt: treating      4 bands with npw=    1973 for ikpt=   1 by node    0
P newkpt: treating      4 bands with npw=    1961 for ikpt=   2 by node    0
P newkpt: treating      4 bands with npw=    1970 for ikpt=   3 by node    0
P newkpt: treating      4 bands with npw=    1962 for ikpt=   4 by node    0
P newkpt: treating      4 bands with npw=    1959 for ikpt=   5 by node    0
P newkpt: treating      4 bands with npw=    1960 for ikpt=   6 by node    0
P newkpt: treating      4 bands with npw=    1965 for ikpt=   7 by node    0
P newkpt: treating      4 bands with npw=    1973 for ikpt=   8 by node    0
P newkpt: treating      4 bands with npw=    1966 for ikpt=   9 by node    0
P newkpt: treating      4 bands with npw=    1963 for ikpt=  10 by node    0
P newkpt: treating      4 bands with npw=    1961 for ikpt=  11 by node    0
P newkpt: treating      4 bands with npw=    1956 for ikpt=  12 by node    0
P newkpt: treating      4 bands with npw=    1959 for ikpt=  13 by node    0
P newkpt: treating      4 bands with npw=    1970 for ikpt=  14 by node    0
P newkpt: treating      4 bands with npw=    1964 for ikpt=  15 by node    0
P newkpt: treating      4 bands with npw=    1959 for ikpt=  16 by node    0
P newkpt: treating      4 bands with npw=    1977 for ikpt=  17 by node    0
P newkpt: treating      4 bands with npw=    1968 for ikpt=  18 by node    0
P newkpt: treating      4 bands with npw=    1959 for ikpt=  19 by node    0
P newkpt: treating      4 bands with npw=    1962 for ikpt=  20 by node    0
P newkpt: treating      4 bands with npw=    1964 for ikpt=  21 by node    0
P newkpt: treating      4 bands with npw=    1971 for ikpt=  22 by node    0
P newkpt: treating      4 bands with npw=    1960 for ikpt=  23 by node    0
P newkpt: treating      4 bands with npw=    1963 for ikpt=  24 by node    0
P newkpt: treating      4 bands with npw=    1960 for ikpt=  25 by node    0
P newkpt: treating      4 bands with npw=    1961 for ikpt=  26 by node    0
P newkpt: treating      4 bands with npw=    1962 for ikpt=  27 by node    0
P newkpt: treating      4 bands with npw=    1965 for ikpt=  28 by node    0
P newkpt: treating      4 bands with npw=    1968 for ikpt=  29 by node    0
P newkpt: treating      4 bands with npw=    1959 for ikpt=  30 by node    0
P newkpt: treating      4 bands with npw=    1960 for ikpt=  31 by node    0
P newkpt: treating      4 bands with npw=    1963 for ikpt=  32 by node    0
P newkpt: treating      4 bands with npw=    1960 for ikpt=  33 by node    0
P newkpt: treating      4 bands with npw=    1961 for ikpt=  34 by node    0
P newkpt: treating      4 bands with npw=    1962 for ikpt=  35 by node    0
P newkpt: treating      4 bands with npw=    1974 for ikpt=  36 by node    0
P newkpt: treating      4 bands with npw=    1959 for ikpt=  37 by node    0
P newkpt: treating      4 bands with npw=    1963 for ikpt=  38 by node    0
P newkpt: treating      4 bands with npw=    1964 for ikpt=  39 by node    0
P newkpt: treating      4 bands with npw=    1958 for ikpt=  40 by node    0
P newkpt: treating      4 bands with npw=    1977 for ikpt=  41 by node    0
P newkpt: treating      4 bands with npw=    1969 for ikpt=  42 by node    0
P newkpt: treating      4 bands with npw=    1962 for ikpt=  43 by node    0
P newkpt: treating      4 bands with npw=    1955 for ikpt=  44 by node    0
P newkpt: treating      4 bands with npw=    1951 for ikpt=  45 by node    0
P newkpt: treating      4 bands with npw=    1948 for ikpt=  46 by node    0
P newkpt: treating      4 bands with npw=    1963 for ikpt=  47 by node    0
P newkpt: treating      4 bands with npw=    1960 for ikpt=  48 by node    0
P newkpt: treating      4 bands with npw=    1959 for ikpt=  49 by node    0
P newkpt: treating      4 bands with npw=    1957 for ikpt=  50 by node    0
 newkpt: prtvol=0 or 1, do not print more k-points.

_setup2: Arith. and geom. avg. npw (full set) are    1962.059    1962.049

================================================================================

     iter   Etot(hartree)      deltaE(h)  residm     vres2
 ETOT  1  -3.6407355151444    -3.641E+00 1.514E-02 6.696E+00
 ETOT  2  -3.6436120615457    -2.877E-03 9.175E-08 2.364E-01
 ETOT  3  -3.6436282330311    -1.617E-05 7.321E-07 1.185E-03

 Cartesian components of stress tensor (hartree/bohr^3)
  sigma(1 1)=  2.51558556E-04  sigma(3 2)=  0.00000000E+00
  sigma(2 2)=  2.51558556E-04  sigma(3 1)=  0.00000000E+00
  sigma(3 3)=  2.51558556E-04  sigma(2 1)=  0.00000000E+00


 scprqt:  WARNING -
  nstep=    3 was not enough SCF cycles to converge;
  potential residual=  1.185E-03 exceeds tolvrs=  1.000E-10

================================================================================

 ----iterations are completed or convergence reached----

 Mean square residual over all n,k,spin=   2.0044E-07; max=  7.3206E-07
  -0.0625 -0.1250  0.0000    1  4.78793E-07 kpt; spin; max resid(k); each band:
  4.79E-07 4.26E-07 8.04E-09 7.43E-08
  -0.0625 -0.2500  0.0000    1  5.31239E-07 kpt; spin; max resid(k); each band:
  5.31E-07 4.52E-07 4.63E-09 1.28E-07
  -0.1250 -0.1875  0.0000    1  6.61732E-07 kpt; spin; max resid(k); each band:
  6.62E-07 5.73E-07 3.74E-09 1.20E-07
  -0.0625 -0.1875  0.0625    1  5.93323E-07 kpt; spin; max resid(k); each band:
  5.93E-07 5.20E-07 6.14E-08 6.68E-08
  -0.0625 -0.3750  0.0000    1  4.24934E-07 kpt; spin; max resid(k); each band:
  4.25E-07 3.17E-07 4.69E-09 1.45E-07
  -0.1250 -0.3125  0.0000    1  6.34384E-07 kpt; spin; max resid(k); each band:
  6.34E-07 4.87E-07 3.15E-09 2.61E-07
  -0.0625 -0.3125  0.0625    1  5.42223E-07 kpt; spin; max resid(k); each band:
  5.42E-07 4.13E-07 1.54E-07 5.56E-08
  -0.1875 -0.2500  0.0000    1  7.32062E-07 kpt; spin; max resid(k); each band:
  7.32E-07 6.69E-07 3.21E-09 1.08E-07
  -0.1250 -0.2500  0.0625    1  6.76611E-07 kpt; spin; max resid(k); each band:
  6.77E-07 5.81E-07 6.34E-08 1.13E-07
  -0.0625 -0.2500  0.1250    1  5.89632E-07 kpt; spin; max resid(k); each band:
  5.90E-07 5.27E-07 6.76E-08 4.41E-08
  -0.0625  0.5000  0.0000    1  1.58521E-07 kpt; spin; max resid(k); each band:
  1.59E-07 1.63E-08 1.34E-07 5.24E-09
  -0.1250 -0.4375  0.0000    1  4.50781E-07 kpt; spin; max resid(k); each band:
  4.51E-07 2.43E-07 2.60E-07 3.05E-09
  -0.0625 -0.4375  0.0625    1  3.19440E-07 kpt; spin; max resid(k); each band:
  3.19E-07 1.12E-07 2.18E-07 3.78E-08
  -0.1875 -0.3750  0.0000    1  6.31943E-07 kpt; spin; max resid(k); each band:
  6.32E-07 4.85E-07 2.25E-07 2.90E-09
  -0.1250 -0.3750  0.0625    1  5.48791E-07 kpt; spin; max resid(k); each band:
  5.49E-07 3.73E-07 2.10E-07 5.73E-08
  -0.0625 -0.3750  0.1250    1  4.36141E-07 kpt; spin; max resid(k); each band:
  4.36E-07 2.49E-07 2.04E-07 2.38E-08
  -0.2500 -0.3125  0.0000    1  7.14811E-07 kpt; spin; max resid(k); each band:
  7.15E-07 6.83E-07 4.45E-08 2.85E-09
  -0.1875 -0.3125  0.0625    1  6.69454E-07 kpt; spin; max resid(k); each band:
  6.69E-07 6.02E-07 5.76E-08 6.65E-08
  -0.1250 -0.3125  0.1250    1  5.91537E-07 kpt; spin; max resid(k); each band:
  5.92E-07 5.16E-07 6.89E-08 7.74E-08
  -0.0625 -0.3125  0.1875    1  4.88786E-07 kpt; spin; max resid(k); each band:
  4.89E-07 4.12E-07 7.87E-08 3.00E-08
  -0.0625  0.3750  0.0000    1  3.21753E-07 kpt; spin; max resid(k); each band:
  3.22E-07 2.19E-07 1.15E-07 3.50E-09
  -0.1250  0.4375  0.0000    1  2.49506E-07 kpt; spin; max resid(k); each band:
  2.50E-07 1.65E-08 2.29E-07 4.21E-09
  -0.1875  0.5000  0.0000    1  3.56404E-07 kpt; spin; max resid(k); each band:
  3.56E-07 1.23E-07 2.47E-07 2.73E-09
  -0.1250  0.5000  0.0625    1  2.80589E-07 kpt; spin; max resid(k); each band:
  2.81E-07 1.78E-08 2.59E-07 2.44E-08
  -0.2500 -0.4375  0.0000    1  5.28580E-07 kpt; spin; max resid(k); each band:
  5.29E-07 4.28E-07 1.28E-07 2.71E-09
  -0.1875 -0.4375  0.0625    1  4.48928E-07 kpt; spin; max resid(k); each band:
  4.49E-07 2.77E-07 2.07E-07 2.09E-08
  -0.1250 -0.4375  0.1250    1  3.44715E-07 kpt; spin; max resid(k); each band:
  3.45E-07 1.24E-07 2.26E-07 2.28E-08
  -0.0625 -0.4375  0.1875    1  2.47008E-07 kpt; spin; max resid(k); each band:
  2.47E-07 1.71E-08 2.13E-07 3.47E-08
  -0.3125 -0.3750  0.0000    1  6.10163E-07 kpt; spin; max resid(k); each band:
  6.10E-07 5.91E-07 1.38E-08 2.59E-09
  -0.2500 -0.3750  0.0625    1  5.73978E-07 kpt; spin; max resid(k); each band:
  5.74E-07 5.43E-07 2.76E-08 2.22E-08
  -0.1875 -0.3750  0.1250    1  4.99758E-07 kpt; spin; max resid(k); each band:
  5.00E-07 4.44E-07 5.73E-08 2.78E-08
  -0.1250 -0.3750  0.1875    1  3.87898E-07 kpt; spin; max resid(k); each band:
  3.88E-07 3.00E-07 7.82E-08 4.18E-08
  -0.0625 -0.3750  0.2500    1  2.44429E-07 kpt; spin; max resid(k); each band:
  2.44E-07 1.33E-07 9.20E-08 4.34E-08
  -0.0625  0.2500  0.0000    1  4.76342E-07 kpt; spin; max resid(k); each band:
  4.76E-07 4.20E-07 8.74E-08 5.06E-09
  -0.1250  0.3125  0.0000    1  4.69035E-07 kpt; spin; max resid(k); each band:
  4.69E-07 3.38E-07 1.76E-07 6.18E-09
  -0.1875  0.3750  0.0000    1  3.21206E-07 kpt; spin; max resid(k); each band:
  3.21E-07 1.16E-07 2.09E-07 3.21E-09
  -0.2500  0.4375  0.0000    1  2.10867E-07 kpt; spin; max resid(k); each band:
  2.11E-07 2.01E-08 1.80E-07 2.73E-09
  -0.3125  0.5000  0.0000    1  3.16415E-07 kpt; spin; max resid(k); each band:
  3.16E-07 2.77E-07 2.97E-08 2.55E-09
  -0.2500  0.5000  0.0625    1  2.58230E-07 kpt; spin; max resid(k); each band:
  2.58E-07 1.37E-07 1.17E-07 2.52E-08
  -0.1875  0.5000  0.1250    1  2.13469E-07 kpt; spin; max resid(k); each band:
  2.13E-07 2.00E-08 1.87E-07 9.95E-09
  -0.3750 -0.4375  0.0000    1  3.94722E-07 kpt; spin; max resid(k); each band:
  3.95E-07 3.72E-07 1.45E-08 2.50E-09
  -0.3125 -0.4375  0.0625    1  3.69949E-07 kpt; spin; max resid(k); each band:
  3.70E-07 3.48E-07 4.46E-09 2.16E-08
  -0.2500 -0.4375  0.1250    1  3.03726E-07 kpt; spin; max resid(k); each band:
  3.04E-07 2.75E-07 2.30E-08 7.11E-09
  -0.1875 -0.4375  0.1875    1  2.10446E-07 kpt; spin; max resid(k); each band:
  2.10E-07 1.43E-07 6.15E-08 1.07E-08
  -0.1250 -0.4375  0.2500    1  1.25937E-07 kpt; spin; max resid(k); each band:
  1.26E-07 1.63E-08 8.40E-08 2.78E-08
  -0.0625 -0.4375  0.3125    1  7.55637E-08 kpt; spin; max resid(k); each band:
  7.56E-08 1.98E-08 2.95E-08 3.26E-08
  -0.0625  0.1250  0.0000    1  4.73032E-07 kpt; spin; max resid(k); each band:
  4.73E-07 4.53E-07 3.21E-08 1.07E-08
  -0.1250  0.1875  0.0000    1  5.46519E-07 kpt; spin; max resid(k); each band:
  5.47E-07 5.15E-07 6.32E-08 7.68E-09
  -0.1875  0.2500  0.0000    1  5.24827E-07 kpt; spin; max resid(k); each band:
  5.25E-07 4.74E-07 7.38E-08 6.68E-09
  -0.2500  0.3125  0.0000    1  3.64229E-07 kpt; spin; max resid(k); each band:
  3.64E-07 2.80E-07 8.59E-08 3.05E-09
 outwf : prtvol=0 or 1, do not print more k-points.

 reduced coordinates (array xred) for    1 atoms
       0.000000000000      0.000000000000      0.000000000000
 rms dE/dt=  0.0000E+00; max dE/dt=  0.0000E+00; dE/dt below (all hartree)
    1       0.000000000000      0.000000000000      0.000000000000

 cartesian coordinates (angstrom) at end:
    1      0.00000000000000     0.00000000000000     0.00000000000000

 cartesian forces (hartree/bohr) at end:
    1     -0.00000000000000    -0.00000000000000    -0.00000000000000
 frms,max,avg= 0.0000000E+00 0.0000000E+00   0.000E+00  0.000E+00  0.000E+00 h/b

 cartesian forces (eV/Angstrom) at end:
    1     -0.00000000000000    -0.00000000000000    -0.00000000000000
 frms,max,avg= 0.0000000E+00 0.0000000E+00   0.000E+00  0.000E+00  0.000E+00 e/A
 length scales= 10.000000000000 10.000000000000 10.000000000000 bohr
              =  5.291772085900  5.291772085900  5.291772085900 angstroms
 prteigrs : about to open file tbasepar_1o_EIG
 Fermi (or HOMO) energy (hartree) =   0.08252   Average Vxc (hartree)=  -0.28614
 Eigenvalues (hartree) for nkpt=  60  k points:
 kpt#   1, nband=  4, wtk=  0.01172, kpt= -0.0625 -0.1250  0.0000 (reduced coord)
  -0.29865   0.23005   0.27370   0.28216
      occupation numbers for kpt#   1
   2.00000   0.00000   0.00000   0.00000
 kpt#   2, nband=  4, wtk=  0.01172, kpt= -0.0625 -0.2500  0.0000 (reduced coord)
  -0.27617   0.11736   0.25210   0.26549
      occupation numbers for kpt#   2
   2.00000   0.00000   0.00000   0.00000
 kpt#   3, nband=  4, wtk=  0.01172, kpt= -0.1250 -0.1875  0.0000 (reduced coord)
  -0.28719   0.18778   0.24573   0.25185
      occupation numbers for kpt#   3
   2.00000   0.00000   0.00000   0.00000
 kpt#   4, nband=  4, wtk=  0.02344, kpt= -0.0625 -0.1875  0.0625 (reduced coord)
  -0.28162   0.15237   0.22494   0.27658
      occupation numbers for kpt#   4
   2.00000   0.00000   0.00000   0.00000
 kpt#   5, nband=  4, wtk=  0.01172, kpt= -0.0625 -0.3750  0.0000 (reduced coord)
  -0.24118   0.01843   0.23976   0.24314
      occupation numbers for kpt#   5
   2.00000   2.00000   0.00000   0.00000
 kpt#   6, nband=  4, wtk=  0.01172, kpt= -0.1250 -0.3125  0.0000 (reduced coord)
  -0.25995   0.08398   0.22615   0.22756
      occupation numbers for kpt#   6
   2.00000   0.83701   0.00000   0.00000
 kpt#   7, nband=  4, wtk=  0.02344, kpt= -0.0625 -0.3125  0.0625 (reduced coord)
  -0.25007   0.05096   0.20315   0.25386
      occupation numbers for kpt#   7
   2.00000   1.99999   0.00000   0.00000
 kpt#   8, nband=  4, wtk=  0.01172, kpt= -0.1875 -0.2500  0.0000 (reduced coord)
  -0.27032   0.14487   0.21730   0.21747
      occupation numbers for kpt#   8
   2.00000   0.00000   0.00000   0.00000
 kpt#   9, nband=  4, wtk=  0.02344, kpt= -0.1250 -0.2500  0.0625 (reduced coord)
  -0.26505   0.11568   0.19459   0.24122
      occupation numbers for kpt#   9
   2.00000   0.00000   0.00000   0.00000
 kpt#  10, nband=  4, wtk=  0.02344, kpt= -0.0625 -0.2500  0.1250 (reduced coord)
  -0.25475   0.08374   0.16404   0.25957
      occupation numbers for kpt#  10
   2.00000   0.86306   0.00000   0.00000
 kpt#  11, nband=  4, wtk=  0.01172, kpt= -0.0625  0.5000  0.0000 (reduced coord)
  -0.21322  -0.03608   0.22705   0.24053
      occupation numbers for kpt#  11
   2.00000   2.00000   0.00000   0.00000
 kpt#  12, nband=  4, wtk=  0.01172, kpt= -0.1250 -0.4375  0.0000 (reduced coord)
  -0.22424  -0.00127   0.19893   0.22134
      occupation numbers for kpt#  12
   2.00000   2.00000   0.00000   0.00000
 kpt#  13, nband=  4, wtk=  0.02344, kpt= -0.0625 -0.4375  0.0625 (reduced coord)
  -0.21605  -0.02144   0.19623   0.23406
      occupation numbers for kpt#  13
   2.00000   2.00000   0.00000   0.00000
 kpt#  14, nband=  4, wtk=  0.01172, kpt= -0.1875 -0.3750  0.0000 (reduced coord)
  -0.23945   0.05593   0.18109   0.20284
      occupation numbers for kpt#  14
   2.00000   1.99983   0.00000   0.00000
 kpt#  15, nband=  4, wtk=  0.02344, kpt= -0.1250 -0.3750  0.0625 (reduced coord)
  -0.23101   0.02751   0.17122   0.21711
      occupation numbers for kpt#  15
   2.00000   2.00000   0.00000   0.00000
 kpt#  16, nband=  4, wtk=  0.02344, kpt= -0.0625 -0.3750  0.1250 (reduced coord)
  -0.21974   0.00485   0.15013   0.22940
      occupation numbers for kpt#  16
   2.00000   2.00000   0.00000   0.00000
 kpt#  17, nband=  4, wtk=  0.01172, kpt= -0.2500 -0.3125  0.0000 (reduced coord)
  -0.24867   0.10130   0.18599   0.19223
      occupation numbers for kpt#  17
   2.00000   0.00793   0.00000   0.00000
 kpt#  18, nband=  4, wtk=  0.02344, kpt= -0.1875 -0.3125  0.0625 (reduced coord)
  -0.24391   0.08169   0.16636   0.20224
      occupation numbers for kpt#  18
   2.00000   1.09351   0.00000   0.00000
 kpt#  19, nband=  4, wtk=  0.02344, kpt= -0.1250 -0.3125  0.1250 (reduced coord)
  -0.23478   0.05691   0.13720   0.21577
      occupation numbers for kpt#  19
   2.00000   1.99971   0.00000   0.00000
 kpt#  20, nband=  4, wtk=  0.02344, kpt= -0.0625 -0.3125  0.1875 (reduced coord)
  -0.22215   0.03529   0.10826   0.22661
      occupation numbers for kpt#  20
   2.00000   2.00000   0.00027   0.00000
 kpt#  21, nband=  4, wtk=  0.01172, kpt= -0.0625  0.3750  0.0000 (reduced coord)
  -0.22918  -0.00675   0.22259   0.25381
      occupation numbers for kpt#  21
   2.00000   2.00000   0.00000   0.00000
 kpt#  22, nband=  4, wtk=  0.01172, kpt= -0.1250  0.4375  0.0000 (reduced coord)
  -0.20883  -0.02930   0.17987   0.23259
      occupation numbers for kpt#  22
   2.00000   2.00000   0.00000   0.00000
 kpt#  23, nband=  4, wtk=  0.01172, kpt= -0.1875  0.5000  0.0000 (reduced coord)
  -0.20705  -0.00979   0.14680   0.20594
      occupation numbers for kpt#  23
   2.00000   2.00000   0.00000   0.00000
 kpt#  24, nband=  4, wtk=  0.02344, kpt= -0.1250  0.5000  0.0625 (reduced coord)
  -0.20454  -0.02282   0.15631   0.21116
      occupation numbers for kpt#  24
   2.00000   2.00000   0.00000   0.00000
 kpt#  25, nband=  4, wtk=  0.01172, kpt= -0.2500 -0.4375  0.0000 (reduced coord)
  -0.21635   0.03337   0.13520   0.18419
      occupation numbers for kpt#  25
   2.00000   2.00000   0.00000   0.00000
 kpt#  26, nband=  4, wtk=  0.02344, kpt= -0.1875 -0.4375  0.0625 (reduced coord)
  -0.21034   0.01279   0.13193   0.18696
      occupation numbers for kpt#  26
   2.00000   2.00000   0.00000   0.00000
 kpt#  27, nband=  4, wtk=  0.02344, kpt= -0.1250 -0.4375  0.1250 (reduced coord)
  -0.20318  -0.00308   0.12278   0.18970
      occupation numbers for kpt#  27
   2.00000   2.00000   0.00000   0.00000
 kpt#  28, nband=  4, wtk=  0.02344, kpt= -0.0625 -0.4375  0.1875 (reduced coord)
  -0.19690  -0.00936   0.10846   0.19729
      occupation numbers for kpt#  28
   2.00000   2.00000   0.00024   0.00000
 kpt#  29, nband=  4, wtk=  0.01172, kpt= -0.3125 -0.3750  0.0000 (reduced coord)
  -0.22359   0.05790   0.16103   0.17237
      occupation numbers for kpt#  29
   2.00000   1.99950   0.00000   0.00000
 kpt#  30, nband=  4, wtk=  0.02344, kpt= -0.2500 -0.3750  0.0625 (reduced coord)
  -0.21971   0.04945   0.14035   0.17057
      occupation numbers for kpt#  30
   2.00000   2.00000   0.00000   0.00000
 kpt#  31, nband=  4, wtk=  0.02344, kpt= -0.1875 -0.3750  0.1250 (reduced coord)
  -0.21252   0.03585   0.11409   0.17103
      occupation numbers for kpt#  31
   2.00000   2.00000   0.00001   0.00000
 kpt#  32, nband=  4, wtk=  0.02344, kpt= -0.1250 -0.3750  0.1875 (reduced coord)
  -0.20318   0.02314   0.08714   0.17965
      occupation numbers for kpt#  32
   2.00000   2.00000   0.51374   0.00000
 kpt#  33, nband=  4, wtk=  0.02344, kpt= -0.0625 -0.3750  0.2500 (reduced coord)
  -0.19348   0.01632   0.06436   0.19076
      occupation numbers for kpt#  33
   2.00000   2.00000   1.98980   0.00000
 kpt#  34, nband=  4, wtk=  0.01172, kpt= -0.0625  0.2500  0.0000 (reduced coord)
  -0.26547   0.08155   0.23192   0.27489
      occupation numbers for kpt#  34
   2.00000   1.11021   0.00000   0.00000
 kpt#  35, nband=  4, wtk=  0.01172, kpt= -0.1250  0.3125  0.0000 (reduced coord)
  -0.23618   0.02367   0.17653   0.25693
      occupation numbers for kpt#  35
   2.00000   2.00000   0.00000   0.00000
 kpt#  36, nband=  4, wtk=  0.01172, kpt= -0.1875  0.3750  0.0000 (reduced coord)
  -0.20753  -0.00831   0.12826   0.22620
      occupation numbers for kpt#  36
   2.00000   2.00000   0.00000   0.00000
 kpt#  37, nband=  4, wtk=  0.01172, kpt= -0.2500  0.4375  0.0000 (reduced coord)
  -0.19306  -0.00445   0.09565   0.19502
      occupation numbers for kpt#  37
   2.00000   2.00000   0.06337   0.00000
 kpt#  38, nband=  4, wtk=  0.01172, kpt= -0.3125  0.5000  0.0000 (reduced coord)
  -0.19412   0.01615   0.09787   0.17129
      occupation numbers for kpt#  38
   2.00000   2.00000   0.03001   0.00000
 kpt#  39, nband=  4, wtk=  0.02344, kpt= -0.2500  0.5000  0.0625 (reduced coord)
  -0.19166   0.00868   0.08952   0.16937
      occupation numbers for kpt#  39
   2.00000   2.00000   0.32233   0.00000
 kpt#  40, nband=  4, wtk=  0.02344, kpt= -0.1875  0.5000  0.1250 (reduced coord)
  -0.18982   0.00230   0.08987   0.15979
      occupation numbers for kpt#  40
   2.00000   2.00000   0.29919   0.00000
 kpt#  41, nband=  4, wtk=  0.01172, kpt= -0.3750 -0.4375  0.0000 (reduced coord)
  -0.19827   0.01888   0.14416   0.15869
      occupation numbers for kpt#  41
   2.00000   2.00000   0.00000   0.00000
 kpt#  42, nband=  4, wtk=  0.02344, kpt= -0.3125 -0.4375  0.0625 (reduced coord)
  -0.19578   0.01983   0.11914   0.15124
      occupation numbers for kpt#  42
   2.00000   2.00000   0.00000   0.00000
 kpt#  43, nband=  4, wtk=  0.02344, kpt= -0.2500 -0.4375  0.1250 (reduced coord)
  -0.19148   0.02070   0.09392   0.13806
      occupation numbers for kpt#  43
   2.00000   2.00000   0.10708   0.00000
 kpt#  44, nband=  4, wtk=  0.02344, kpt= -0.1875 -0.4375  0.1875 (reduced coord)
  -0.18659   0.02133   0.07030   0.13606
      occupation numbers for kpt#  44
   2.00000   2.00000   1.91629   0.00000
 kpt#  45, nband=  4, wtk=  0.02344, kpt= -0.1250 -0.4375  0.2500 (reduced coord)
  -0.18253   0.02176   0.05342   0.14636
      occupation numbers for kpt#  45
   2.00000   2.00000   1.99996   0.00000
 kpt#  46, nband=  4, wtk=  0.02344, kpt= -0.0625 -0.4375  0.3125 (reduced coord)
  -0.18014   0.01532   0.05596   0.16128
      occupation numbers for kpt#  46
   2.00000   2.00000   1.99983   0.00000
 kpt#  47, nband=  4, wtk=  0.01172, kpt= -0.0625  0.1250  0.0000 (reduced coord)
  -0.29293   0.19174   0.25483   0.29324
      occupation numbers for kpt#  47
   2.00000   0.00000   0.00000   0.00000
 kpt#  48, nband=  4, wtk=  0.01172, kpt= -0.1250  0.1875  0.0000 (reduced coord)
  -0.27066   0.11598   0.19424   0.28418
      occupation numbers for kpt#  48
   2.00000   0.00000   0.00000   0.00000
 kpt#  49, nband=  4, wtk=  0.01172, kpt= -0.1875  0.2500  0.0000 (reduced coord)
  -0.24006   0.05611   0.13423   0.25812
      occupation numbers for kpt#  49
   2.00000   1.99981   0.00000   0.00000
 kpt#  50, nband=  4, wtk=  0.01172, kpt= -0.2500  0.3125  0.0000 (reduced coord)
  -0.20759   0.02091   0.08335   0.22269
      occupation numbers for kpt#  50
   2.00000   2.00000   0.90724   0.00000
 prteigrs : prtvol=0 or 1, do not print more k-points.

 Total charge density [el/Bohr^3]
,     Maximum=    3.6928E-02  at reduced coord.    0.8333    0.9444    0.9444
,Next maximum=    3.6928E-02  at reduced coord.    0.2778    0.9444    0.9444
,     Minimum=    3.1774E-05  at reduced coord.    0.0000    0.0000    0.0000
,Next minimum=    9.8292E-05  at reduced coord.    0.0278    0.0000    0.0000
,  Integrated=    4.0000E+00

--------------------------------------------------------------------------------
 Components of total free energy (in Hartree) :

    Kinetic energy  =  1.06425847255160E+00
    Hartree energy  =  7.74486183665480E-02
    XC energy       = -9.59189716511067E-01
    Ewald energy    = -3.66788965929106E+00
    PspCore energy  =  1.98019023536441E-01
    Loc. psp. energy= -5.88369138386003E-01
    NL   psp  energy=  2.33079811097628E-01
    >>>>> Internal E= -3.64264258863591E+00

    -kT*entropy     = -9.85644395152725E-04
    >>>>>>>>> Etotal= -3.64362823303106E+00

 Other information on the energy :
    Total energy(eV)= -9.91481664921417E+01 ; Band energy (Ha)=  -3.8520295564E-01
--------------------------------------------------------------------------------

 Cartesian components of stress tensor (hartree/bohr^3)
  sigma(1 1)=  2.51558556E-04  sigma(3 2)=  0.00000000E+00
  sigma(2 2)=  2.51558556E-04  sigma(3 1)=  0.00000000E+00
  sigma(3 3)=  2.51558556E-04  sigma(2 1)=  0.00000000E+00

-Cartesian components of stress tensor (GPa)         [Pressure= -7.4011E+00 GPa]
- sigma(1 1)=  7.40110701E+00  sigma(3 2)=  0.00000000E+00
- sigma(2 2)=  7.40110701E+00  sigma(3 1)=  0.00000000E+00
- sigma(3 3)=  7.40110701E+00  sigma(2 1)=  0.00000000E+00

== END DATASET(S) ==============================================================
================================================================================
  
 -outvars: echo values of variables after computation  --------
            acell      1.0000000000E+01  1.0000000000E+01  1.0000000000E+01 Bohr
              amu      2.07200000E+02
             ecut      3.00000000E+01 Hartree
           etotal     -3.6436282330E+00
            fcart     -0.0000000000E+00 -0.0000000000E+00 -0.0000000000E+00
              kpt     -6.25000000E-02 -1.25000000E-01  0.00000000E+00
                      -6.25000000E-02 -2.50000000E-01  0.00000000E+00
                      -1.25000000E-01 -1.87500000E-01  0.00000000E+00
                      -6.25000000E-02 -1.87500000E-01  6.25000000E-02
                      -6.25000000E-02 -3.75000000E-01  0.00000000E+00
                      -1.25000000E-01 -3.12500000E-01  0.00000000E+00
                      -6.25000000E-02 -3.12500000E-01  6.25000000E-02
                      -1.87500000E-01 -2.50000000E-01  0.00000000E+00
                      -1.25000000E-01 -2.50000000E-01  6.25000000E-02
                      -6.25000000E-02 -2.50000000E-01  1.25000000E-01
                      -6.25000000E-02  5.00000000E-01  0.00000000E+00
                      -1.25000000E-01 -4.37500000E-01  0.00000000E+00
                      -6.25000000E-02 -4.37500000E-01  6.25000000E-02
                      -1.87500000E-01 -3.75000000E-01  0.00000000E+00
                      -1.25000000E-01 -3.75000000E-01  6.25000000E-02
                      -6.25000000E-02 -3.75000000E-01  1.25000000E-01
                      -2.50000000E-01 -3.12500000E-01  0.00000000E+00
                      -1.87500000E-01 -3.12500000E-01  6.25000000E-02
                      -1.25000000E-01 -3.12500000E-01  1.25000000E-01
                      -6.25000000E-02 -3.12500000E-01  1.87500000E-01
                      -6.25000000E-02  3.75000000E-01  0.00000000E+00
                      -1.25000000E-01  4.37500000E-01  0.00000000E+00
                      -1.87500000E-01  5.00000000E-01  0.00000000E+00
                      -1.25000000E-01  5.00000000E-01  6.25000000E-02
                      -2.50000000E-01 -4.37500000E-01  0.00000000E+00
                      -1.87500000E-01 -4.37500000E-01  6.25000000E-02
                      -1.25000000E-01 -4.37500000E-01  1.25000000E-01
                      -6.25000000E-02 -4.37500000E-01  1.87500000E-01
                      -3.12500000E-01 -3.75000000E-01  0.00000000E+00
                      -2.50000000E-01 -3.75000000E-01  6.25000000E-02
                      -1.87500000E-01 -3.75000000E-01  1.25000000E-01
                      -1.25000000E-01 -3.75000000E-01  1.87500000E-01
                      -6.25000000E-02 -3.75000000E-01  2.50000000E-01
                      -6.25000000E-02  2.50000000E-01  0.00000000E+00
                      -1.25000000E-01  3.12500000E-01  0.00000000E+00
                      -1.87500000E-01  3.75000000E-01  0.00000000E+00
                      -2.50000000E-01  4.37500000E-01  0.00000000E+00
                      -3.12500000E-01  5.00000000E-01  0.00000000E+00
                      -2.50000000E-01  5.00000000E-01  6.25000000E-02
                      -1.87500000E-01  5.00000000E-01  1.25000000E-01
                      -3.75000000E-01 -4.37500000E-01  0.00000000E+00
                      -3.12500000E-01 -4.37500000E-01  6.25000000E-02
                      -2.50000000E-01 -4.37500000E-01  1.25000000E-01
                      -1.87500000E-01 -4.37500000E-01  1.87500000E-01
                      -1.25000000E-01 -4.37500000E-01  2.50000000E-01
                      -6.25000000E-02 -4.37500000E-01  3.12500000E-01
                      -6.25000000E-02  1.25000000E-01  0.00000000E+00
                      -1.25000000E-01  1.87500000E-01  0.00000000E+00
                      -1.87500000E-01  2.50000000E-01  0.00000000E+00
                      -2.50000000E-01  3.12500000E-01  0.00000000E+00
                       outvar_i_n : Printing only first  50 k-points.
         kptrlatt        8   -8    8     -8    8    8     -8   -8    8
          kptrlen      8.00000000E+01
P           mkmem          60
            natom           1
            nband           4
            ngfft          36      36      36
             nkpt          60
            nstep           3
             nsym          48
           ntypat           1
              occ      2.000000  0.000000  0.000000  0.000000
                       2.000000  0.000001  0.000000  0.000000
                       2.000000  0.000000  0.000000  0.000000
                       2.000000  0.000000  0.000000  0.000000
                       2.000000  2.000000  0.000000  0.000000
                       2.000000  0.837006  0.000000  0.000000
                       2.000000  1.999992  0.000000  0.000000
                       2.000000  0.000000  0.000000  0.000000
                       2.000000  0.000003  0.000000  0.000000
                       2.000000  0.863057  0.000000  0.000000
                       2.000000  2.000000  0.000000  0.000000
                       2.000000  2.000000  0.000000  0.000000
                       2.000000  2.000000  0.000000  0.000000
                       2.000000  1.999830  0.000000  0.000000
                       2.000000  2.000000  0.000000  0.000000
                       2.000000  2.000000  0.000000  0.000000
                       2.000000  0.007927  0.000000  0.000000
                       2.000000  1.093506  0.000000  0.000000
                       2.000000  1.999709  0.000000  0.000000
                       2.000000  2.000000  0.000273  0.000000
                       2.000000  2.000000  0.000000  0.000000
                       2.000000  2.000000  0.000000  0.000000
                       2.000000  2.000000  0.000000  0.000000
                       2.000000  2.000000  0.000000  0.000000
                       2.000000  2.000000  0.000000  0.000000
                       2.000000  2.000000  0.000000  0.000000
                       2.000000  2.000000  0.000000  0.000000
                       2.000000  2.000000  0.000245  0.000000
                       2.000000  1.999503  0.000000  0.000000
                       2.000000  1.999997  0.000000  0.000000
                       2.000000  2.000000  0.000008  0.000000
                       2.000000  2.000000  0.513744  0.000000
                       2.000000  2.000000  1.989803  0.000000
                       2.000000  1.110208  0.000000  0.000000
                       2.000000  2.000000  0.000000  0.000000
                       2.000000  2.000000  0.000000  0.000000
                       2.000000  2.000000  0.063370  0.000000
                       2.000000  2.000000  0.030006  0.000000
                       2.000000  2.000000  0.322332  0.000000
                       2.000000  2.000000  0.299191  0.000000
                       2.000000  2.000000  0.000000  0.000000
                       2.000000  2.000000  0.000000  0.000000
                       2.000000  2.000000  0.107083  0.000000
                       2.000000  2.000000  1.916287  0.000000
                       2.000000  2.000000  1.999962  0.000000
                       2.000000  2.000000  1.999828  0.000000
                       2.000000  0.000000  0.000000  0.000000
                       2.000000  0.000002  0.000000  0.000000
                       2.000000  1.999813  0.000000  0.000000
                       2.000000  2.000000  0.907237  0.000000
                       prtocc : prtvol=0, do not print more k-points.
           occopt           7
            rprim      0.0000000000E+00  5.0000000000E-01  5.0000000000E-01
                       5.0000000000E-01  0.0000000000E+00  5.0000000000E-01
                       5.0000000000E-01  5.0000000000E-01  0.0000000000E+00
           shiftk      5.00000000E-01  5.00000000E-01  5.00000000E-01
          spgroup         225
           strten      2.5155855640E-04  2.5155855640E-04  2.5155855640E-04
                       0.0000000000E+00  0.0000000000E+00  0.0000000000E+00
           symrel      1  0  0   0  1  0   0  0  1      -1  0  0   0 -1  0   0  0 -1
                       0 -1  1   0 -1  0   1 -1  0       0  1 -1   0  1  0  -1  1  0
                      -1  0  0  -1  0  1  -1  1  0       1  0  0   1  0 -1   1 -1  0
                       0  1 -1   1  0 -1   0  0 -1       0 -1  1  -1  0  1   0  0  1
                      -1  0  0  -1  1  0  -1  0  1       1  0  0   1 -1  0   1  0 -1
                       0 -1  1   1 -1  0   0 -1  0       0  1 -1  -1  1  0   0  1  0
                       1  0  0   0  0  1   0  1  0      -1  0  0   0  0 -1   0 -1  0
                       0  1 -1   0  0 -1   1  0 -1       0 -1  1   0  0  1  -1  0  1
                      -1  0  1  -1  1  0  -1  0  0       1  0 -1   1 -1  0   1  0  0
                       0 -1  0   1 -1  0   0 -1  1       0  1  0  -1  1  0   0  1 -1
                       1  0 -1   0  0 -1   0  1 -1      -1  0  1   0  0  1   0 -1  1
                       0  1  0   0  0  1   1  0  0       0 -1  0   0  0 -1  -1  0  0
                       1  0 -1   0  1 -1   0  0 -1      -1  0  1   0 -1  1   0  0  1
                       0 -1  0   0 -1  1   1 -1  0       0  1  0   0  1 -1  -1  1  0
                      -1  0  1  -1  0  0  -1  1  0       1  0 -1   1  0  0   1 -1  0
                       0  1  0   1  0  0   0  0  1       0 -1  0  -1  0  0   0  0 -1
                       0  0 -1   0  1 -1   1  0 -1       0  0  1   0 -1  1  -1  0  1
                       1 -1  0   0 -1  1   0 -1  0      -1  1  0   0  1 -1   0  1  0
                       0  0  1   1  0  0   0  1  0       0  0 -1  -1  0  0   0 -1  0
                      -1  1  0  -1  0  0  -1  0  1       1 -1  0   1  0  0   1  0 -1
                       0  0  1   0  1  0   1  0  0       0  0 -1   0 -1  0  -1  0  0
                       1 -1  0   0 -1  0   0 -1  1      -1  1  0   0  1  0   0  1 -1
                       0  0 -1   1  0 -1   0  1 -1       0  0  1  -1  0  1   0 -1  1
                      -1  1  0  -1  0  1  -1  0  0       1 -1  0   1  0 -1   1  0  0
           tolvrs      1.00000000E-10
           tsmear      1.00000000E-02 Hartree
            typat      1
              wtk        0.01172    0.01172    0.01172    0.02344    0.01172    0.01172
                         0.02344    0.01172    0.02344    0.02344    0.01172    0.01172
                         0.02344    0.01172    0.02344    0.02344    0.01172    0.02344
                         0.02344    0.02344    0.01172    0.01172    0.01172    0.02344
                         0.01172    0.02344    0.02344    0.02344    0.01172    0.02344
                         0.02344    0.02344    0.02344    0.01172    0.01172    0.01172
                         0.01172    0.01172    0.02344    0.02344    0.01172    0.02344
                         0.02344    0.02344    0.02344    0.02344    0.01172    0.01172
                         0.01172    0.01172
                       outvars : Printing only first  50 k-points.
            znucl       82.00000

================================================================================


- Timing analysis has been suppressed with timopt=0



================================================================================

 Suggested references for the acknowledgment of ABINIT usage.

 The users of ABINIT have little formal obligations with respect to the ABINIT group
 (those specified in the GNU General Public License, http://www.gnu.org/copyleft/gpl.txt).
 However, it is common practice in the scientific literature,
 to acknowledge the efforts of people that have made the research possible.
 In this spirit, please find below suggested citations of work written by ABINIT developers,
 corresponding to implementations inside of ABINIT that you have used in the present run.
 Note also that it will be of great value to readers of publications presenting these results,
 to read papers enabling them to understand the theoretical formalism and details
 of the ABINIT implementation.
 For information on why they are suggested, see also http://www.abinit.org/about/?text=acknowledgments.

 [1] ABINIT : First-principles approach of materials and nanosystem properties.
 X. Gonze, B. Amadon, P.-M. Anglade, J.-M. Beuken, F. Bottin, P. Boulanger, F. Bruneval,
 D. Caliste, R. Caracas, M. Cote, T. Deutsch, L. Genovese, Ph. Ghosez, M. Giantomassi
 S. Goedecker, D.R. Hamann, P. Hermet, F. Jollet, G. Jomard, S. Leroux, M. Mancini, S. Mazevet,
 M.J.T. Oliveira, G. Onida, Y. Pouillon, T. Rangel, G.-M. Rignanese, D. Sangalli, R. Shaltaf,
 M. Torrent, M.J. Verstraete, G. Zerah, J.W. Zwanziger
 Computer Phys. Comm. 180, 2582-2615 (2009).
 Comment : the third generic paper describing the ABINIT project.
 Note that a version of this paper, that is not formatted for Computer Phys. Comm. 
 is available at http://www.abinit.org/about/ABINIT_CPC_v10.pdf .
 The licence allows the authors to put it on the Web.

 [2] A brief introduction to the ABINIT software package.
 X. Gonze, G.-M. Rignanese, M. Verstraete, J.-M. Beuken, Y. Pouillon, R. Caracas, F. Jollet,
 M. Torrent, G. Zerah, M. Mikami, Ph. Ghosez, M. Veithen, J.-Y. Raty, V. Olevano, F. Bruneval,
 L. Reining, R. Godby, G. Onida, D.R. Hamann, and D.C. Allan.
 Z. Kristallogr. 220, 558-562 (2005).
 Comment : the second generic paper describing the ABINIT project. Note that this paper
 should be cited especially if you are using the GW part of ABINIT, as several authors
 of this part are not in the list of authors of the first or third paper.
 The .pdf of the latter paper is available at http://www.abinit.org/about/zfk_0505-06_558-562.pdf.
 Note that it should not redistributed (Copyright by Oldenburg Wissenshaftverlag,
 the licence allows the authors to put it on the Web).


 And optionally :

 [3] First-principles computation of material properties : the ABINIT software project. 
 X. Gonze, J.-M. Beuken, R. Caracas, F. Detraux, M. Fuchs, G.-M. Rignanese, L. Sindic,
 M. Verstraete, G. Zerah, F. Jollet, M. Torrent, A. Roy, M. Mikami, Ph. Ghosez, J.-Y. Raty, D.C. Allan.
 Computational Materials Science 25, 478-492 (2002). http://dx.doi.org/10.1016/S0927-0256(02)00325-7
 Comment : the original paper describing the ABINIT project.

 [4] Fast radix 2, 3, 4 and 5 kernels for Fast Fourier Transformations
 on computers with overlapping multiply-add instructions.
 S. Goedecker, SIAM J. on Scientific Computing 18, 1605 (1997).
-
- Proc.   0 individual time (sec): cpu=         16.6  wall=         17.1

================================================================================

 Calculation completed.
.Delivered    5 WARNINGs and   3 COMMENTs to log file.
+Overall time at end (sec) : cpu=         16.6  wall=         17.1
