  ABINIT 
  
  Give name for formatted input file: 
tdftu_1.in
  Give name for formatted output file:
tdftu_1.out
  Give root name for generic input files:
tdftu_1i
  Give root name for generic output files:
tdftu_1o
  Give root name for generic temporary files:
tdftu_1x

 herald :  WARNING -
  The starting date is more than 3 years after the initial release
  of this version of ABINIT, namely Aug 2013.
  This version of ABINIT is not supported anymore.
  Action : please, switch to a more recent version of ABINIT.

.Version 7.4.3 of ABINIT 
.(MPI version, prepared for a i686_cygwin_gnu4.7 computer) 

.Copyright (C) 1998-2013 ABINIT group . 
 ABINIT comes with ABSOLUTELY NO WARRANTY.
 It is free software, and you are welcome to redistribute it
 under certain conditions (GNU General Public License,
 see ~abinit/COPYING or http://www.gnu.org/copyleft/gpl.txt).

 ABINIT is a project of the Universite Catholique de Louvain,
 Corning Inc. and other collaborators, see ~abinit/doc/developers/contributors.txt .
 Please read ~abinit/doc/users/acknowledgments.html for suggested
 acknowledgments of the ABINIT effort.
 For more information, see http://www.abinit.org .

.Starting date : Mon  4 Jun 2018.
- ( at 13h24 )
  

 herald :  WARNING -
  The starting date is more than 3 years after the initial release
  of this version of ABINIT, namely Aug 2013.
  This version of ABINIT is not supported anymore.
  Action : please, switch to a more recent version of ABINIT.

 herald :  WARNING -
  The starting date is more than 3 years after the initial release
  of this version of ABINIT, namely Aug 2013.
  This version of ABINIT is not supported anymore.
  Action : please, switch to a more recent version of ABINIT.

 ++++++++++++++++++++++++++++++++++++++++++++++++++++++++++++++++++++++++++++++

 === Build Information === 
  Version       : 7.4.3
  Build target  : i686_cygwin_gnu4.7
  Build date    : 20131019

 === Compiler Suite === 
  C compiler       : gnu
  CFLAGS           : -mfpmath=sse -msse2 -O2 -Wstrict-aliasing=2 -static
  C++ compiler     : gnu4.7
  CXXFLAGS         : -mfpmath=sse -msse2 -O2 -Wstrict-aliasing=2 -static
  Fortran compiler : gnu4.7
  FCFLAGS          : -mfpmath=sse -msse2 -O2 -ffree-line-length-none -Wstrict-aliasing=2 -static
  FC_LDFLAGS       : 

 === Optimizations === 
  Debug level        : no
  Optimization level : standard
  Architecture       : _

 === MPI === 
  Parallel build : yes
  Parallel I/O   : no
  Time tracing   : no
  GPU support    : no

 === Connectors / Fallbacks === 
  Connectors on : yes
  Fallbacks on  : yes
  DFT flavor    : libxc+atompaw+bigdft+wannier90
  FFT flavor    : none
  LINALG flavor : netlib
  MATH flavor   : none
  TIMER flavor  : abinit
  TRIO flavor   : netcdf+etsf_io

 === Experimental features === 
  Bindings            : no
  Exports             : no
  GW double-precision : yes

 === Bazaar branch information === 
  Branch ID : xavier.gonze@uclouvain.be-20131019063522-8wupmx7xtg5stywd
  Revision  : 490
  Committed : 0

 ++++++++++++++++++++++++++++++++++++++++++++++++++++++++++++++++++++++++++++++


 ++++++++++++++++++++++++++++++++++++++++++++++++++++++++++++++++++++++++++++++
 Default optimizations:
   --- None ---


 ++++++++++++++++++++++++++++++++++++++++++++++++++++++++++++++++++++++++++++++


 ++++++++++++++++++++++++++++++++++++++++++++++++++++++++++++++++++++++++++++++
 CPP options activated during the build:

                    CC_GNU                   CXX_GNU                    FC_GNU

           HAVE_BZR_BRANCH          HAVE_DFT_ATOMPAW           HAVE_DFT_BIGDFT

            HAVE_DFT_LIBXC        HAVE_DFT_WANNIER90 HAVE_FC_ALLOCATABLE_DT...

      HAVE_FC_COMMAND_LINE        HAVE_FC_CONTIGUOUS           HAVE_FC_CPUTIME

              HAVE_FC_EXIT             HAVE_FC_FLUSH             HAVE_FC_GAMMA

            HAVE_FC_GETENV          HAVE_FC_INT_QUAD             HAVE_FC_IOMSG

     HAVE_FC_ISO_C_BINDING        HAVE_FC_LONG_LINES              HAVE_FC_NULL

         HAVE_FC_STREAM_IO          HAVE_FORTRAN2003               HAVE_LINALG

        HAVE_LINALG_SERIAL                  HAVE_MPI                 HAVE_MPI1

 HAVE_MPI_TYPE_CREATE_S...           HAVE_OS_WINDOWS                HAVE_TIMER

         HAVE_TIMER_ABINIT            HAVE_TIMER_MPI         HAVE_TIMER_SERIAL

         HAVE_TRIO_ETSF_IO          HAVE_TRIO_NETCDF
 ++++++++++++++++++++++++++++++++++++++++++++++++++++++++++++++++++++++++++++++

- input  file    -> tdftu_1.in
- output file    -> tdftu_1.out
- root for input  files -> tdftu_1i
- root for output files -> tdftu_1o

-instrng :    53 lines of input have been read from file tdftu_1.in


 iofn2 : Please give name of formatted atomic psp file
 iofn2 : for atom type   1 , psp file is 28ni.paw

 iofn2 : Please give name of formatted atomic psp file
 iofn2 : for atom type   2 , psp file is 8o.2.paw
  read the values zionpsp= 18.0 , pspcod=   7 , lmax=   2
 2 0.                                   : shape_type,rshape                      
  read the values zionpsp=  6.0 , pspcod=   7 , lmax=   2
 2 0.                                   : shape_type(SIN),rshape                 

 inpspheads : deduce mpsang  =   3, n1xccc  =   1.

 invars1m : enter jdtset=     0
 invars1 : treat image number     1

 symlatt : the Bravais lattice is hR (rhombohedral)
  xred   is defined in input file
 ingeo : takes atomic coordinates from input array xred

 symlatt : the Bravais lattice is hR (rhombohedral)
 Shubnikov space group type IV
 symspgr : the symmetry operation no.   1 is the identity
 symspgr : the symmetry operation no.   2 is an inversion
 symplanes : the symmetry operation no.   3 is a mirror plane
 symaxes : the symmetry operation no.   4 is a 2-axis
 symaxes : the symmetry operation no.   5 is a 3-axis
 symspgr : the symmetry operation no.   6 is a -3 axis
 symplanes : the symmetry operation no.   7 is a mirror plane
 symaxes : the symmetry operation no.   8 is a 2-axis
 symaxes : the symmetry operation no.   9 is a 3-axis
 symspgr : the symmetry operation no.  10 is a -3 axis
 symplanes : the symmetry operation no.  11 is a mirror plane
 symaxes : the symmetry operation no.  12 is a 2-axis
 symspgr : spgroup= 166  R-3 m   (=D3d^5)
 getkgrid : length of smallest supercell vector (bohr)=    1.120057E+01
       Simple Lattice Grid
 symkpt : found identity, with number  1
 getkgrid : length of smallest supercell vector (bohr)=    1.120057E+01
       Simple Lattice Grid
 symkpt : found identity, with number  1
  dtset%nelect=   48.000000000000000     
 chkneu : initialized the occupation numbers for occopt=    7
    spin-unpolarized case :
  2.00  2.00  2.00  2.00  2.00  2.00  2.00  2.00  2.00  2.00  2.00  2.00
  2.00  2.00  2.00  2.00  2.00  2.00  2.00  2.00  2.00  2.00  2.00  2.00
  0.00  0.00  0.00  0.00  0.00  0.00  0.00  0.00  0.00  0.00  0.00  0.00
  0.00  0.00  0.00  0.00
  mpi_setup : enter 
 mpi_setup1: mkmem  undefined in the input file. Use default mkmem  = nkpt
 mpi_setup1: With nkpt_me=    3 and mkmem  =     3, ground state wf handled in core.
 mpi_setup1: mkqmem undefined in the input file. Use default mkqmem = nkpt
 mpi_setup1: With nkpt_me=    3 and mkqmem =     3, ground state wf handled in core.
 mpi_setup1: mk1mem undefined in the input file. Use default mk1mem = nkpt
 mpi_setup1: With nkpt_me=    3 and mk1mem =     3, ground state wf handled in core.

 getng is called for the coarse grid:

 getng.F90:200:WARNING
   The second and third dimension of the FFT grid,    0    0  were imposed to be multiple of the number of processors for the FFT,    1
 For input ecut=  1.500000E+01 best grid ngfft=      20      20      40
       max ecut=  1.573437E+01

 ==== FFT mesh ====
  FFT mesh divisions ........................    20   20   40
  Augmented FFT divisions ...................    21   21   40
  FFT algorithm .............................   112
  FFT cache size ............................    16
 getmpw: optimal value of mpw=     691

 getng is called for the fine grid:
 Using supplied coarse mesh as initial guess.
 For input ecut=  3.000000E+01 best grid ngfft=      30      30      60
       max ecut=  3.546134E+01

 ==== FFT mesh ====
  FFT mesh divisions ........................    30   30   60
  Augmented FFT divisions ...................    31   31   60
  FFT algorithm .............................   112
  FFT cache size ............................    16

 Magnetic group, Shubnikov type IV
 Fedorov space group R-3 m (#166)
 Magnetic Bravais lattice hR_I (rhombohedral, centered magnetic, #31)

 getdim_nloc : deduce lmnmax  =  18, lnmax  =   6,
                      lmnmaxso=  18, lnmaxso=   6.
 setmqgrid : COMMENT -
  The number of points "mqgrid" in reciprocal space used for the
  description of the pseudopotentials has been set automatically
  by abinit to :     3001.
 setmqgrid : COMMENT -
  The number of points "mqgriddg" in reciprocal space used for the
  description of the pseudopotentials has been set automatically
  by abinit to :     3001.
 memory : analysis of memory needs
================================================================================
 Values of the parameters that define the memory need of the present run
   intxc =         0  ionmov =         0    iscf =        17 xclevel =         1
  lmnmax =        18   lnmax =         6   mband =        40  mffmem =         1
P  mgfft =        40   mkmem =         3 mpssoang=         3     mpw =       691
  mqgrid =      3001   natom =         4    nfft =     16000    nkpt =         3
  nloalg =         4  nspden =         2 nspinor =         1  nsppol =         1
    nsym =        24  n1xccc =         1  ntypat =         2  occopt =         7
 PAW method is used; the additional fine FFT grid is defined by:
   mgfftf=        60    nfftf =     54000
================================================================================
P This job should need less than                      25.070 Mbytes of memory.
  Rough estimation (10% accuracy) of disk space for files :
_ WF disk file :      1.267 Mbytes ; DEN or POT disk file :      0.414 Mbytes.
================================================================================

 Biggest array : pawfgrtab%gylm(gr), with     19.9589 MBytes.
 memana : allocated an array of     19.959 Mbytes, for testing purposes.
 memana : allocated      25.070 Mbytes, for testing purposes.
 The job will continue.
--------------------------------------------------------------------------------
------------- Echo of variables that govern the present computation ------------
--------------------------------------------------------------------------------
-
- outvars: echo of selected default values                                      
-   accesswff0 =  0 , fftalg0 =112 , wfoptalg0 = 10
-
- outvars: echo of global parameters not present in the input file              
-  max_nthreads =    0
-
 -outvars: echo values of preprocessed input variables --------
 
 These variables are accessible in NetCDF format (tdftu_1o_OUT.nc)

            acell      7.9200000000E+00  7.9200000000E+00  7.9200000000E+00 Bohr
              amu      5.86900000E+01  1.59994000E+01
      chksymbreak           0
             ecut      1.50000000E+01 Hartree
              ixc           7
              kpt      2.50000000E-01  2.50000000E-01  2.50000000E-01
                      -2.50000000E-01  2.50000000E-01  2.50000000E-01
                      -2.50000000E-01 -2.50000000E-01  2.50000000E-01
         kptrlatt        2    0    0      0    2    0      0    0    2
          kptrlen      1.12005714E+01
P           mkmem           3
            natom           4
            nband          40
            ngfft          20      20      40
          ngfftdg          30      30      60
             nkpt           3
           nspden           2
            nstep          50
             nsym          24
           ntypat           2
              occ      2.000000  2.000000  2.000000  2.000000  2.000000  2.000000
                       2.000000  2.000000  2.000000  2.000000  2.000000  2.000000
                       2.000000  2.000000  2.000000  2.000000  2.000000  2.000000
                       2.000000  2.000000  2.000000  2.000000  2.000000  2.000000
                       0.000000  0.000000  0.000000  0.000000  0.000000  0.000000
                       0.000000  0.000000  0.000000  0.000000  0.000000  0.000000
                       0.000000  0.000000  0.000000  0.000000
                       2.000000  2.000000  2.000000  2.000000  2.000000  2.000000
                       2.000000  2.000000  2.000000  2.000000  2.000000  2.000000
                       2.000000  2.000000  2.000000  2.000000  2.000000  2.000000
                       2.000000  2.000000  2.000000  2.000000  2.000000  2.000000
                       0.000000  0.000000  0.000000  0.000000  0.000000  0.000000
                       0.000000  0.000000  0.000000  0.000000  0.000000  0.000000
                       0.000000  0.000000  0.000000  0.000000
                       2.000000  2.000000  2.000000  2.000000  2.000000  2.000000
                       2.000000  2.000000  2.000000  2.000000  2.000000  2.000000
                       2.000000  2.000000  2.000000  2.000000  2.000000  2.000000
                       2.000000  2.000000  2.000000  2.000000  2.000000  2.000000
                       0.000000  0.000000  0.000000  0.000000  0.000000  0.000000
                       0.000000  0.000000  0.000000  0.000000  0.000000  0.000000
                       0.000000  0.000000  0.000000  0.000000
           occopt           7
        pawecutdg      3.00000000E+01 Hartree
        prtdensph           1
            rprim      0.0000000000E+00  5.0000000000E-01  5.0000000000E-01
                       5.0000000000E-01  0.0000000000E+00  5.0000000000E-01
                       1.0000000000E+00  1.0000000000E+00  0.0000000000E+00
           shiftk      5.00000000E-01  5.00000000E-01  5.00000000E-01
          spgroup         166
           spinat      0.0000000000E+00  0.0000000000E+00  1.0000000000E+00
                       0.0000000000E+00  0.0000000000E+00 -1.0000000000E+00
                       0.0000000000E+00  0.0000000000E+00  0.0000000000E+00
                       0.0000000000E+00  0.0000000000E+00  0.0000000000E+00
           symafm        1   -1    1   -1    1   -1    1   -1    1   -1
                         1   -1    1   -1    1   -1    1   -1    1   -1
                         1   -1    1   -1
           symrel      1  0  0   0  1  0   0  0  1       1  0  0   0  1  0   0  0  1
                      -1  0  0   0 -1  0   0  0 -1      -1  0  0   0 -1  0   0  0 -1
                       0  1  0   1  0  0   0  0  1       0  1  0   1  0  0   0  0  1
                       0 -1  0  -1  0  0   0  0 -1       0 -1  0  -1  0  0   0  0 -1
                       0 -1  0   1 -1  0   0 -2  1       0 -1  0   1 -1  0   0 -2  1
                       0  1  0  -1  1  0   0  2 -1       0  1  0  -1  1  0   0  2 -1
                       1 -1  0   0 -1  0   0 -2  1       1 -1  0   0 -1  0   0 -2  1
                      -1  1  0   0  1  0   0  2 -1      -1  1  0   0  1  0   0  2 -1
                      -1  1  0  -1  0  0  -2  0  1      -1  1  0  -1  0  0  -2  0  1
                       1 -1  0   1  0  0   2  0 -1       1 -1  0   1  0  0   2  0 -1
                      -1  0  0  -1  1  0  -2  0  1      -1  0  0  -1  1  0  -2  0  1
                       1  0  0   1 -1  0   2  0 -1       1  0  0   1 -1  0   2  0 -1
            tnons      0.0000000  0.0000000  0.0000000     0.0000000  0.0000000  0.5000000
                       0.0000000  0.0000000  0.0000000     0.0000000  0.0000000  0.5000000
                       0.0000000  0.0000000  0.0000000     0.0000000  0.0000000  0.5000000
                       0.0000000  0.0000000  0.0000000     0.0000000  0.0000000  0.5000000
                       0.0000000  0.0000000  0.0000000     0.0000000  0.0000000  0.5000000
                       0.0000000  0.0000000  0.0000000     0.0000000  0.0000000  0.5000000
                       0.0000000  0.0000000  0.0000000     0.0000000  0.0000000  0.5000000
                       0.0000000  0.0000000  0.0000000     0.0000000  0.0000000  0.5000000
                       0.0000000  0.0000000  0.0000000     0.0000000  0.0000000  0.5000000
                       0.0000000  0.0000000  0.0000000     0.0000000  0.0000000  0.5000000
                       0.0000000  0.0000000  0.0000000     0.0000000  0.0000000  0.5000000
                       0.0000000  0.0000000  0.0000000     0.0000000  0.0000000  0.5000000
           toldfe      1.00000000E-08 Hartree
           tsmear      1.50000000E-02 Hartree
            typat      1  1  2  2
           useylm           1
              wtk        0.25000    0.50000    0.25000
           xangst      0.0000000000E+00  0.0000000000E+00  0.0000000000E+00
                       2.0955417460E+00  2.0955417460E+00  0.0000000000E+00
                       2.0955417460E+00  2.0955417460E+00  2.0955417460E+00
                       4.1910834920E+00  4.1910834920E+00  2.0955417460E+00
            xcart      0.0000000000E+00  0.0000000000E+00  0.0000000000E+00
                       3.9600000000E+00  3.9600000000E+00  0.0000000000E+00
                       3.9600000000E+00  3.9600000000E+00  3.9600000000E+00
                       7.9200000000E+00  7.9200000000E+00  3.9600000000E+00
             xred      0.0000000000E+00  0.0000000000E+00  0.0000000000E+00
                       0.0000000000E+00  0.0000000000E+00  5.0000000000E-01
                       5.0000000000E-01  5.0000000000E-01  2.5000000000E-01
                       5.0000000000E-01  5.0000000000E-01  7.5000000000E-01
            znucl       28.00000    8.00000

================================================================================

 chkinp: machine precision is   2.2204460492503131E-16

 chkinp: Checking input parameters for consistency.
 DATA TYPE INFORMATION: 
 REAL:      Data type name: REAL(DP) 
            Kind value:      8
            Precision:      15
            Smallest nonnegligible quantity relative to 1:  0.22204460E-15
            Smallest positive number:                       0.22250739-307
            Largest representable number:                   0.17976931+309
 INTEGER:   Data type name: INTEGER(default) 
            Kind value: 4
            Bit size:   32
            Largest representable number: 2147483647
 LOGICAL:   Data type name: LOGICAL 
            Kind value: 4
 CHARACTER: Data type name: CHARACTER             Kind value: 1
 ==== OpenMP parallelism is OFF ====
 
  ==== Using MPI-1 specifications ==== 
  MPI-IO support is OFF
  xmpi_tag_ub ................   2147483647
  xmpi_bsize_ch ..............            1
  xmpi_bsize_int .............            4
  xmpi_bsize_sp ..............            4
  xmpi_bsize_dp ..............            8
  xmpi_bsize_spc .............            8
  xmpi_bsize_dpc .............           16
  xmpio_bsize_frm ............            0
  xmpi_address_kind ..........            8
  xmpi_offset_kind ...........            8
  MPI_WTICK ..................    5.7018069026074364E-007

================================================================================
== DATASET  1 ==================================================================
-   nproc =    1

 setmqgrid : COMMENT -
  The number of points "mqgrid" in reciprocal space used for the
  description of the pseudopotentials has been set automatically
  by abinit to :     3001.
 setmqgrid : COMMENT -
  The number of points "mqgriddg" in reciprocal space used for the
  description of the pseudopotentials has been set automatically
  by abinit to :     3001.

 getdim_nloc : deduce lmnmax  =  18, lnmax  =   6,
                      lmnmaxso=  18, lnmaxso=   6.
 Exchange-correlation functional for the present dataset will be:
  LDA: Perdew-Wang 92 LSD fit to Ceperley-Alder data - ixc=7
 Citation for XC functional:
  J.P.Perdew and Y.Wang, PRB 45, 13244 (1992)

 Unit cell volume ucvol=  2.4839654E+02 bohr^3
 Angles (23,13,12)=  6.00000000E+01  6.00000000E+01  6.00000000E+01 degrees

 Coarse grid specifications (used for wave-functions):

 getcut: wavevector=  0.0000  0.0000  0.0000  ngfft=  20  20  40
         ecut(hartree)=     15.000   => boxcut(ratio)=   2.04837

 Fine grid specifications (used for densities):

 getcut: wavevector=  0.0000  0.0000  0.0000  ngfft=  30  30  60
         ecut(hartree)=     30.000   => boxcut(ratio)=   2.17444
- pspini: atom type   1  psp file is 28ni.paw
- pspatm: opening atomic psp file    28ni.paw
- Paw atomic data for element Ni - Generated by AtomPAW (N. Holzwarth) + AtomPAW2Abinit v3.0.5
- 28.00000  18.00000  20061204                znucl, zion, pspdat
    7    7    2    0       350   0.00000      pspcod,pspxc,lmax,lloc,mmax,r2well
 Pseudopotential format is: paw3
 basis_size (lnmax)=  5 (lmn_size= 13), orbitals=   0   0   1   1   2
 Spheres core radius: rc_sph= 2.30000000
 3 radial meshes are used:
  - mesh 1: r(i)=AA*exp(BB*(i-2)), size= 350 , AA= 0.11804E-04 BB= 0.35000E-01
  - mesh 2: r(i)=step*(i-1), size= 921 , step= 0.25000E-02
  - mesh 3: r(i)=AA*exp(BB*(i-2)), size= 391 , AA= 0.11804E-04 BB= 0.35000E-01
 Shapefunction is SIN type: shapef(r)=[sin(pi*r/rshp)/(pi*r/rshp)]**2
 Radius for shape functions = sphere core radius
 Radial grid used for partial waves is grid 1
 Radial grid used for projectors is grid  2
 Radial grid used for (t)core density is grid 1
 Radial grid used for Vloc is grid 3

 psp7calc: WARNING -
  Atomic data could produce inaccurate results:
    Wavefunctions and pseudo-wavefunctions should
    be given on a radial mesh larger than the PAW
    spheres (at least 2 additional points) !
  Action: check your pseudopotential file.
 pspatm: atomic psp has been read  and splines computed

- pspini: atom type   2  psp file is 8o.2.paw
- pspatm: opening atomic psp file    8o.2.paw
- Paw atomic data extracted from US-psp (D.Vanderbilt): Oxygen
-  8.00000   6.00000  20050722                znucl, zion, pspdat
    7   11    2    0       489   0.00000      pspcod,pspxc,lmax,lloc,mmax,r2well

 pspatm_abinit: WARNING -
  Pseudopotential file pspxc=      11,
  not equal to input ixc=       7.
  These parameters must agree to get the same xc 
  in ABINIT code as in psp construction.
  Action : check psp design or input file.
  Assume experienced user. Execution will continue.

 Pseudopotential format is: paw3
 basis_size (lnmax)=  6 (lmn_size= 18), orbitals=   0   0   1   1   2   2
 Spheres core radius: rc_sph= 1.21105161
 4 radial meshes are used:
  - mesh 1: r(i)=AA*[exp(BB*(i-1))-1], size= 489 , AA= 0.30984E-03 BB= 0.16949E-01
  - mesh 2: r(i)=AA*[exp(BB*(i-1))-1], size= 548 , AA= 0.30984E-03 BB= 0.16949E-01
  - mesh 3: r(i)=AA*[exp(BB*(i-1))-1], size= 509 , AA= 0.30984E-03 BB= 0.16949E-01
  - mesh 4: r(i)=AA*[exp(BB*(i-1))-1], size= 613 , AA= 0.30984E-03 BB= 0.16949E-01
 Shapefunction is SIN type: shapef(r)=[sin(pi*r/rshp)/(pi*r/rshp)]**2
 Radius for shape functions = sphere core radius
 Radial grid used for partial waves is grid 1
 Radial grid used for projectors is grid  2
 Radial grid used for (t)core density is grid 3
 Radial grid used for Vloc is grid 4

 psp7calc: WARNING -
  Atomic data could produce inaccurate results:
    Wavefunctions and pseudo-wavefunctions should
    be given on a radial mesh larger than the PAW
    spheres (at least 2 additional points) !
  Action: check your pseudopotential file.
 pspatm: atomic psp has been read  and splines computed

   5.32753584E+03                                ecore*ucvol(ha*bohr**3)
   1  2  1  2  1  2  1  2  1  2  1  2  1  2  1  2  1  2  1  2  1  2  1  2
   2  1  2  1  2  1  2  1  2  1  2  1  2  1  2  1  2  1  2  1  2  1  2  1
   3  4  4  3  3  4  4  3  3  4  4  3  3  4  4  3  3  4  4  3  3  4  4  3
   4  3  3  4  4  3  3  4  4  3  3  4  4  3  3  4  4  3  3  4  4  3  3  4
 wfconv:    40 bands initialized randomly with npw=   685, for ikpt=     1
 wfconv:    40 bands initialized randomly with npw=   691, for ikpt=     2
 wfconv:    40 bands initialized randomly with npw=   678, for ikpt=     3

_setup2: Arith. and geom. avg. npw (full set) are     686.250     686.229
 initro : for itypat=  1, take decay length=      0.6000,
 initro : indeed, coreel=     10.0000, nval= 18 and densty=  0.0000E+00.
 initro : for itypat=  2, take decay length=      0.5000,
 initro : indeed, coreel=      2.0000, nval=  6 and densty=  0.0000E+00.

================================================================================
 FFT (fine) grid used in SCF cycle:

 getcut: wavevector=  0.0000  0.0000  0.0000  ngfft=  30  30  60
         ecut(hartree)=     30.000   => boxcut(ratio)=   2.17444

 ewald : nr and ng are    4 and   17

 ****** Psp strength Dij in Ha (atom      1) *****) *****
 (antiferromagnetism case: only one spin component)
 Component up:
  -2.77737  -0.97332   0.00000  -0.00000  -0.00000   0.00000  -0.00000  -0.00000   0.00000  -0.00000  -0.00000  -0.00000 ...
  -0.97332  -0.59225   0.00000  -0.00000  -0.00000   0.00000  -0.00000  -0.00000   0.00000  -0.00000  -0.00000  -0.00000 ...
   0.00000   0.00000  -2.24698  -0.00000   0.00000  -0.53496  -0.00000   0.00000  -0.00000  -0.00000  -0.00000   0.00000 ...
  -0.00000  -0.00000  -0.00000  -2.24698  -0.00000  -0.00000  -0.53496  -0.00000   0.00000   0.00000  -0.00000  -0.00000 ...
  -0.00000  -0.00000   0.00000  -0.00000  -2.24698   0.00000  -0.00000  -0.53496   0.00000   0.00000   0.00000  -0.00000 ...
   0.00000   0.00000  -0.53496  -0.00000   0.00000  -0.33997  -0.00000   0.00000  -0.00000  -0.00000  -0.00000   0.00000 ...
  -0.00000  -0.00000  -0.00000  -0.53496  -0.00000  -0.00000  -0.33997  -0.00000   0.00000   0.00000  -0.00000  -0.00000 ...
  -0.00000  -0.00000   0.00000  -0.00000  -0.53496   0.00000  -0.00000  -0.33997  -0.00000   0.00000   0.00000  -0.00000 ...
   0.00000   0.00000  -0.00000   0.00000   0.00000  -0.00000   0.00000  -0.00000  -0.35416  -0.00000  -0.00000  -0.00000 ...
  -0.00000  -0.00000  -0.00000   0.00000   0.00000  -0.00000   0.00000   0.00000  -0.00000  -0.35416  -0.00000   0.00000 ...
  -0.00000  -0.00000  -0.00000  -0.00000   0.00000  -0.00000  -0.00000   0.00000  -0.00000  -0.00000  -0.35432  -0.00000 ...
  -0.00000  -0.00000   0.00000  -0.00000  -0.00000   0.00000  -0.00000  -0.00000  -0.00000   0.00000  -0.00000  -0.35416 ...
   ...  only 12  components have been written...

 ****** Psp strength Dij in Ha (atom      4) *****) *****
 (antiferromagnetism case: only one spin component)
 Component up:
   0.64774   1.09058   0.00000  -0.00000   0.00000   0.00000  -0.00000   0.00000  -0.00000   0.00000  -0.00000   0.00000 ...
   1.09058   1.83316   0.00000  -0.00000   0.00000   0.00000  -0.00000   0.00000  -0.00000   0.00000  -0.00000   0.00000 ...
   0.00000   0.00000  -0.30391  -0.00000   0.00000  -0.34827  -0.00000   0.00000  -0.00000   0.00000   0.00000  -0.00000 ...
  -0.00000  -0.00000  -0.00000  -0.30391  -0.00000  -0.00000  -0.34827  -0.00000  -0.00000  -0.00000   0.00000  -0.00000 ...
   0.00000   0.00000   0.00000  -0.00000  -0.30391   0.00000  -0.00000  -0.34827  -0.00000  -0.00000   0.00000   0.00000 ...
   0.00000   0.00000  -0.34827  -0.00000   0.00000  -0.36606  -0.00000   0.00000  -0.00000   0.00000   0.00000  -0.00000 ...
  -0.00000  -0.00000  -0.00000  -0.34827  -0.00000  -0.00000  -0.36606  -0.00000  -0.00000  -0.00000   0.00000  -0.00000 ...
   0.00000   0.00000   0.00000  -0.00000  -0.34827   0.00000  -0.00000  -0.36606  -0.00000  -0.00000   0.00000   0.00000 ...
  -0.00000  -0.00000  -0.00000  -0.00000  -0.00000  -0.00000  -0.00000  -0.00000  -0.01726  -0.00000  -0.00000  -0.00000 ...
   0.00000   0.00000   0.00000  -0.00000  -0.00000   0.00000  -0.00000  -0.00000  -0.00000  -0.01726  -0.00000   0.00000 ...
  -0.00000  -0.00000   0.00000   0.00000   0.00000   0.00000   0.00000   0.00000  -0.00000  -0.00000  -0.01726  -0.00000 ...
   0.00000   0.00000  -0.00000  -0.00000   0.00000  -0.00000  -0.00000   0.00000  -0.00000   0.00000  -0.00000  -0.01726 ...
   ...  only 12  components have been written...


 ITER STEP NUMBER     1
 vtorho : nnsclo_now=  2, note that nnsclo,dbl_nnsclo,istep=  0 0  1
 newocc : new Fermi energy is       0.242125 , with nelect=     48.000000
  Number of bissection calls =  52
 newocc : computed new occ. numbers for occopt=    7 , spin-unpolarized case.
 2.000 2.000 2.000 2.000 2.000 2.000 2.000 2.000 2.000 2.000 2.000 2.000
 2.000 2.000 2.000 2.000 2.000 2.000 2.000 2.000 2.000 2.000 2.000 1.691
 0.049 0.000 0.000 0.000 0.000 0.000 0.000 0.000 0.000 0.000 0.000 0.000
 0.000 0.000 0.000 0.000
 2.000 2.000 2.000 2.000 2.000 2.000 2.000 2.000 2.000 2.000 2.000 2.000
 2.000 2.000 2.000 2.000 2.000 2.000 2.000 2.000 2.000 2.000 1.999 1.901
 0.000 0.000 0.000 0.000 0.000 0.000 0.000 0.000 0.000 0.000 0.000 0.000
 0.000 0.000 0.000 0.000
 2.000 2.000 2.000 2.000 2.000 2.000 2.000 2.000 2.000 2.000 2.000 2.000
 2.000 2.000 2.000 2.000 2.000 2.000 2.000 2.000 2.000 2.000 2.000 1.944
 0.516 0.000 0.000 0.000 0.000 0.000 0.000 0.000 0.000 0.000 0.000 0.000
 0.000 0.000 0.000 0.000
mkrho: echo density (plane-wave part only)
 Total charge density [el/Bohr^3]
,     Maximum=    6.7222E-01  at reduced coord.    0.0000    0.0000    0.5000
,     Minimum=    1.4276E-02  at reduced coord.    0.2500    0.2500    0.1250
,  Integrated=    2.5139E+01
 Spin up density      [el/Bohr^3]
,     Maximum=    3.4853E-01  at reduced coord.    0.0000    0.0000    0.0000
,     Minimum=    6.7230E-03  at reduced coord.    0.2500    0.2500    0.1250
,  Integrated=    1.2569E+01
 Spin down density    [el/Bohr^3]
,     Maximum=    3.4853E-01  at reduced coord.    0.0000    0.0000    0.5000
,     Minimum=    6.7230E-03  at reduced coord.    0.7500    0.7500    0.3750
,  Integrated=    1.2569E+01
 Magnetization (spin up - spin down) [el/Bohr^3]
,     Maximum=    2.4828E-02  at reduced coord.    0.0000    0.0000    0.0000
,     Minimum=   -2.4828E-02  at reduced coord.    0.0000    0.0000    0.5000
,  Integrated=    0.0000E+00
 Relative magnetization (=zeta, between -1 and 1)
,     Maximum=    6.6507E-02  at reduced coord.    0.3000    0.3000    0.6250
,     Minimum=   -6.6507E-02  at reduced coord.    0.3000    0.1500    0.1250

 *********** RHOIJ (atom   1, ispden=1) **********
   0.95615  -0.07676   0.00000   0.00000   0.00000   0.00000   0.00000   0.00000   0.01453  -0.01453   0.00000  -0.01453 ...
  -0.07676   0.52259   0.00000   0.00000   0.00000   0.00000   0.00000   0.00000  -0.02330   0.02330   0.00000   0.02330 ...
   0.00000   0.00000   0.86671  -0.00210   0.00210   0.12814   0.00899  -0.00899   0.00000   0.00000   0.00000   0.00000 ...
   0.00000   0.00000  -0.00210   0.86671  -0.00210   0.00899   0.12814   0.00899   0.00000   0.00000   0.00000   0.00000 ...
   0.00000   0.00000   0.00210  -0.00210   0.86671  -0.00899   0.00899   0.12814   0.00000   0.00000   0.00000   0.00000 ...
   0.00000   0.00000   0.12814   0.00899  -0.00899   0.35901  -0.02999   0.02999   0.00000   0.00000   0.00000   0.00000 ...
   0.00000   0.00000   0.00899   0.12814   0.00899  -0.02999   0.35901  -0.02999   0.00000   0.00000   0.00000   0.00000 ...
   0.00000   0.00000  -0.00899   0.00899   0.12814   0.02999  -0.02999   0.35901   0.00000   0.00000   0.00000   0.00000 ...
   0.01453  -0.02330   0.00000   0.00000   0.00000   0.00000   0.00000   0.00000   0.93120   0.00744   0.00451   0.00744 ...
  -0.01453   0.02330   0.00000   0.00000   0.00000   0.00000   0.00000   0.00000   0.00744   0.93120   0.00226  -0.00744 ...
   0.00000   0.00000   0.00000   0.00000   0.00000   0.00000   0.00000   0.00000   0.00451   0.00226   0.89497   0.00226 ...
  -0.01453   0.02330   0.00000   0.00000   0.00000   0.00000   0.00000   0.00000   0.00744  -0.00744   0.00226   0.93120 ...
   ...  only 12  components have been written...

 *********** RHOIJ (atom   1, ispden=2) **********
   0.94216  -0.04213   0.00000   0.00000   0.00000   0.00000   0.00000   0.00000  -0.01617   0.01617   0.00000   0.01617 ...
  -0.04213   0.41397   0.00000   0.00000   0.00000   0.00000   0.00000   0.00000   0.04326  -0.04326   0.00000  -0.04326 ...
   0.00000   0.00000   0.84783  -0.01230   0.01230   0.16524   0.02108  -0.02108   0.00000   0.00000   0.00000   0.00000 ...
   0.00000   0.00000  -0.01230   0.84783  -0.01230   0.02108   0.16524   0.02108   0.00000   0.00000   0.00000   0.00000 ...
   0.00000   0.00000   0.01230  -0.01230   0.84783  -0.02108   0.02108   0.16524   0.00000   0.00000   0.00000   0.00000 ...
   0.00000   0.00000   0.16524   0.02108  -0.02108   0.28253  -0.01327   0.01327   0.00000   0.00000   0.00000   0.00000 ...
   0.00000   0.00000   0.02108   0.16524   0.02108  -0.01327   0.28253  -0.01327   0.00000   0.00000   0.00000   0.00000 ...
   0.00000   0.00000  -0.02108   0.02108   0.16524   0.01327  -0.01327   0.28253   0.00000   0.00000   0.00000   0.00000 ...
  -0.01617   0.04326   0.00000   0.00000   0.00000   0.00000   0.00000   0.00000   0.90138   0.02043   0.00496   0.02043 ...
   0.01617  -0.04326   0.00000   0.00000   0.00000   0.00000   0.00000   0.00000   0.02043   0.90138   0.00248  -0.02043 ...
   0.00000   0.00000   0.00000   0.00000   0.00000   0.00000   0.00000   0.00000   0.00496   0.00248   0.88349   0.00248 ...
   0.01617  -0.04326   0.00000   0.00000   0.00000   0.00000   0.00000   0.00000   0.02043  -0.02043   0.00248   0.90138 ...
   ...  only 12  components have been written...

 *********** RHOIJ (atom   4, ispden=1) **********
   1.27447  -0.15916   0.00582  -0.00582   0.00582   0.00437  -0.00437   0.00437  -0.00411   0.00411   0.00000   0.00411 ...
  -0.15916   0.05565   0.00301  -0.00301   0.00301  -0.00310   0.00310  -0.00310  -0.00043   0.00043   0.00000   0.00043 ...
   0.00582   0.00301   0.71121   0.01308  -0.01308  -0.09657  -0.00673   0.00673   0.00078  -0.00078   0.00541  -0.00342 ...
  -0.00582  -0.00301   0.01308   0.71121   0.01308  -0.00673  -0.09657  -0.00673  -0.00342   0.00078   0.01082   0.00078 ...
   0.00582   0.00301  -0.01308   0.01308   0.71121   0.00673  -0.00673  -0.09657   0.00078  -0.00342   0.00541  -0.00078 ...
   0.00437  -0.00310  -0.09657  -0.00673   0.00673   0.09534  -0.00015   0.00015  -0.00223   0.00223  -0.00094   0.00398 ...
  -0.00437   0.00310  -0.00673  -0.09657  -0.00673  -0.00015   0.09534  -0.00015   0.00398  -0.00223  -0.00189  -0.00223 ...
   0.00437  -0.00310   0.00673  -0.00673  -0.09657   0.00015  -0.00015   0.09534  -0.00223   0.00398  -0.00094   0.00223 ...
  -0.00411  -0.00043   0.00078  -0.00342   0.00078  -0.00223   0.00398  -0.00223   0.15398   0.00178  -0.00864   0.00178 ...
   0.00411   0.00043  -0.00078   0.00078  -0.00342   0.00223  -0.00223   0.00398   0.00178   0.15398  -0.00432  -0.00178 ...
   0.00000   0.00000   0.00541   0.01082   0.00541  -0.00094  -0.00189  -0.00094  -0.00864  -0.00432   0.13325  -0.00432 ...
   0.00411   0.00043  -0.00342   0.00078  -0.00078   0.00398  -0.00223   0.00223   0.00178  -0.00178  -0.00432   0.15398 ...
   ...  only 12  components have been written...

 *********** RHOIJ (atom   4, ispden=2) **********
   1.27447  -0.15916  -0.00582   0.00582  -0.00582  -0.00437   0.00437  -0.00437  -0.00411   0.00411   0.00000   0.00411 ...
  -0.15916   0.05565  -0.00301   0.00301  -0.00301   0.00310  -0.00310   0.00310  -0.00043   0.00043   0.00000   0.00043 ...
  -0.00582  -0.00301   0.71121   0.01308  -0.01308  -0.09657  -0.00673   0.00673  -0.00078   0.00078  -0.00541   0.00342 ...
   0.00582   0.00301   0.01308   0.71121   0.01308  -0.00673  -0.09657  -0.00673   0.00342  -0.00078  -0.01082  -0.00078 ...
  -0.00582  -0.00301  -0.01308   0.01308   0.71121   0.00673  -0.00673  -0.09657  -0.00078   0.00342  -0.00541   0.00078 ...
  -0.00437   0.00310  -0.09657  -0.00673   0.00673   0.09534  -0.00015   0.00015   0.00223  -0.00223   0.00094  -0.00398 ...
   0.00437  -0.00310  -0.00673  -0.09657  -0.00673  -0.00015   0.09534  -0.00015  -0.00398   0.00223   0.00189   0.00223 ...
  -0.00437   0.00310   0.00673  -0.00673  -0.09657   0.00015  -0.00015   0.09534   0.00223  -0.00398   0.00094  -0.00223 ...
  -0.00411  -0.00043  -0.00078   0.00342  -0.00078   0.00223  -0.00398   0.00223   0.15398   0.00178  -0.00864   0.00178 ...
   0.00411   0.00043   0.00078  -0.00078   0.00342  -0.00223   0.00223  -0.00398   0.00178   0.15398  -0.00432  -0.00178 ...
   0.00000   0.00000  -0.00541  -0.01082  -0.00541   0.00094   0.00189   0.00094  -0.00864  -0.00432   0.13325  -0.00432 ...
   0.00411   0.00043   0.00342  -0.00078   0.00078  -0.00398   0.00223  -0.00223   0.00178  -0.00178  -0.00432   0.15398 ...
   ...  only 12  components have been written...

 Total charge density [el/Bohr^3]
,     Maximum=    2.0622E+00  at reduced coord.    0.0000    0.0000    0.5000
,     Minimum=    1.4321E-02  at reduced coord.    0.2333    0.2333    0.1333
,  Integrated=    4.8000E+01
 Spin up density      [el/Bohr^3]
,     Maximum=    1.0481E+00  at reduced coord.    0.0000    0.0000    0.0000
,     Minimum=    6.7458E-03  at reduced coord.    0.2667    0.2333    0.1167
,  Integrated=    2.4000E+01
 Spin down density    [el/Bohr^3]
,     Maximum=    1.0481E+00  at reduced coord.    0.0000    0.0000    0.5000
,     Minimum=    6.7458E-03  at reduced coord.    0.7333    0.7333    0.3833
,  Integrated=    2.4000E+01
 Magnetization (spin up - spin down) [el/Bohr^3]
,     Maximum=    3.4296E-02  at reduced coord.    0.0333    0.0333    0.9500
,     Minimum=   -3.4296E-02  at reduced coord.    0.0333    0.0333    0.4500
,  Integrated=    0.0000E+00
 Relative magnetization (=zeta, between -1 and 1)
,     Maximum=    6.7076E-02  at reduced coord.    0.3000    0.3333    0.6167
,     Minimum=   -6.7076E-02  at reduced coord.    0.3000    0.1333    0.1167

 Integrated total density in atomic spheres:
 -------------------------------------------
 Atom  Sphere radius  Integrated_up_density  Integrated_dn_density  Total(up+dn)   Diff(up-dn)
    1        2.30000             8.89266657             8.70889410   17.60156067    0.18377246
    2        2.30000             8.70889410             8.89266657   17.60156067   -0.18377246
    3        1.21105             1.63434418             1.63434418    3.26868837    0.00000000
    4        1.21105             1.63434418             1.63434418    3.26868837   -0.00000000
 Note: Diff(up-dn) can be considered as a rough approximation of a local magnetic moment.


 ETOT  1  -370.10327042238    -3.701E+02 1.018E+01 2.123E+02
 scprqt: <Vxc>= -5.3384178E-01 hartree

Simple mixing update:
  residual square of the potential :   1.0502613557004489E-003

 ****** Psp strength Dij in Ha (atom      1) *****) *****
 (antiferromagnetism case: only one spin component)
 Component up:
  -2.76403  -0.93493  -0.00000  -0.00000  -0.00000  -0.00000  -0.00000  -0.00000  -0.00134   0.00134   0.00000   0.00134 ...
  -0.93493  -0.57460  -0.00000  -0.00000  -0.00000  -0.00000  -0.00000  -0.00000  -0.00029   0.00029   0.00000   0.00029 ...
  -0.00000  -0.00000  -2.18791   0.00120  -0.00120  -0.49790   0.00022  -0.00022  -0.00000  -0.00000   0.00000  -0.00000 ...
  -0.00000  -0.00000   0.00120  -2.18791   0.00120   0.00022  -0.49790   0.00022  -0.00000  -0.00000  -0.00000  -0.00000 ...
  -0.00000  -0.00000  -0.00120   0.00120  -2.18791  -0.00022   0.00022  -0.49790  -0.00000  -0.00000   0.00000  -0.00000 ...
  -0.00000  -0.00000  -0.49790   0.00022  -0.00022  -0.32459   0.00004  -0.00004  -0.00000  -0.00000   0.00000  -0.00000 ...
  -0.00000  -0.00000   0.00022  -0.49790   0.00022   0.00004  -0.32459   0.00004  -0.00000  -0.00000  -0.00000  -0.00000 ...
  -0.00000  -0.00000  -0.00022   0.00022  -0.49790  -0.00004   0.00004  -0.32459  -0.00000  -0.00000   0.00000  -0.00000 ...
  -0.00134  -0.00029  -0.00000  -0.00000  -0.00000  -0.00000  -0.00000  -0.00000  -0.28650   0.00089   0.00061   0.00089 ...
   0.00134   0.00029  -0.00000  -0.00000  -0.00000  -0.00000  -0.00000  -0.00000   0.00089  -0.28650   0.00031  -0.00089 ...
   0.00000   0.00000   0.00000  -0.00000   0.00000   0.00000  -0.00000   0.00000   0.00061   0.00031  -0.28711   0.00031 ...
   0.00134   0.00029  -0.00000  -0.00000  -0.00000  -0.00000  -0.00000  -0.00000   0.00089  -0.00089   0.00031  -0.28650 ...
   ...  only 12  components have been written...

 ****** Psp strength Dij in Ha (atom      4) *****) *****
 (antiferromagnetism case: only one spin component)
 Component up:
   0.66131   1.11421  -0.00006   0.00006  -0.00006  -0.00009   0.00009  -0.00009  -0.00002   0.00002  -0.00000   0.00002 ...
   1.11421   1.87432  -0.00009   0.00009  -0.00009  -0.00015   0.00015  -0.00015  -0.00003   0.00003  -0.00000   0.00003 ...
  -0.00006  -0.00009  -0.33469  -0.00005   0.00005  -0.39244  -0.00007   0.00007   0.00003  -0.00003  -0.00001   0.00000 ...
   0.00006   0.00009  -0.00005  -0.33469  -0.00005  -0.00007  -0.39244  -0.00007   0.00000   0.00003  -0.00002   0.00003 ...
  -0.00006  -0.00009   0.00005  -0.00005  -0.33469   0.00007  -0.00007  -0.39244   0.00003   0.00000  -0.00001  -0.00003 ...
  -0.00009  -0.00015  -0.39244  -0.00007   0.00007  -0.42929  -0.00010   0.00010   0.00005  -0.00005  -0.00001   0.00000 ...
   0.00009   0.00015  -0.00007  -0.39244  -0.00007  -0.00010  -0.42929  -0.00010   0.00000   0.00005  -0.00002   0.00005 ...
  -0.00009  -0.00015   0.00007  -0.00007  -0.39244   0.00010  -0.00010  -0.42929   0.00005   0.00000  -0.00001  -0.00005 ...
  -0.00002  -0.00003   0.00003   0.00000   0.00003   0.00005   0.00000   0.00005  -0.01898  -0.00001  -0.00001  -0.00001 ...
   0.00002   0.00003  -0.00003   0.00003   0.00000  -0.00005   0.00005   0.00000  -0.00001  -0.01898  -0.00000   0.00001 ...
  -0.00000  -0.00000  -0.00001  -0.00002  -0.00001  -0.00001  -0.00002  -0.00001  -0.00001  -0.00000  -0.01899  -0.00000 ...
   0.00002   0.00003   0.00000   0.00003  -0.00003   0.00000   0.00005  -0.00005  -0.00001   0.00001  -0.00000  -0.01898 ...
   ...  only 12  components have been written...


 ITER STEP NUMBER     2
 vtorho : nnsclo_now=  2, note that nnsclo,dbl_nnsclo,istep=  0 0  2
 newocc : new Fermi energy is       0.214404 , with nelect=     48.000000
  Number of bissection calls =  52
 newocc : computed new occ. numbers for occopt=    7 , spin-unpolarized case.
 2.000 2.000 2.000 2.000 2.000 2.000 2.000 2.000 2.000 2.000 2.000 2.000
 2.000 2.000 2.000 2.000 2.000 2.000 2.000 1.999 1.993 1.936 1.920 1.767
 0.825 0.023 0.000 0.000 0.000 0.000 0.000 0.000 0.000 0.000 0.000 0.000
 0.000 0.000 0.000 0.000
 2.000 2.000 2.000 2.000 2.000 2.000 2.000 2.000 2.000 2.000 2.000 2.000
 2.000 2.000 2.000 2.000 2.000 2.000 1.997 1.979 1.951 1.821 1.748 1.619
 0.432 0.026 0.000 0.000 0.000 0.000 0.000 0.000 0.000 0.000 0.000 0.000
 0.000 0.000 0.000 0.000
 2.000 2.000 2.000 2.000 2.000 2.000 2.000 2.000 2.000 2.000 2.000 2.000
 2.000 2.000 2.000 2.000 2.000 2.000 2.000 1.988 1.987 1.922 1.846 1.834
 0.775 0.035 0.000 0.000 0.000 0.000 0.000 0.000 0.000 0.000 0.000 0.000
 0.000 0.000 0.000 0.000
mkrho: echo density (plane-wave part only)
 Total charge density [el/Bohr^3]
,     Maximum=    7.8662E-01  at reduced coord.    0.0000    0.0000    0.5000
,     Minimum=    9.9872E-03  at reduced coord.    0.2500    0.2500    0.1250
,  Integrated=    2.5754E+01
 Spin up density      [el/Bohr^3]
,     Maximum=    3.9371E-01  at reduced coord.    0.0000    0.0000    0.0000
,     Minimum=    4.9857E-03  at reduced coord.    0.7500    0.7500    0.3750
,  Integrated=    1.2877E+01
 Spin down density    [el/Bohr^3]
,     Maximum=    3.9371E-01  at reduced coord.    0.0000    0.0000    0.5000
,     Minimum=    4.9857E-03  at reduced coord.    0.2500    0.2500    0.1250
,  Integrated=    1.2877E+01
 Magnetization (spin up - spin down) [el/Bohr^3]
,     Maximum=    3.3664E-02  at reduced coord.    0.1500    0.9000    0.9250
,     Minimum=   -3.3664E-02  at reduced coord.    0.1500    0.1000    0.4250
,  Integrated=    0.0000E+00
 Relative magnetization (=zeta, between -1 and 1)
,     Maximum=    1.5515E-01  at reduced coord.    0.2000    0.8000    0.9250
,     Minimum=   -1.5515E-01  at reduced coord.    0.2000    0.1500    0.4250

 *********** RHOIJ (atom   1, ispden=1) **********
   1.05629  -0.10826   0.00000   0.00000   0.00000   0.00000   0.00000   0.00000   0.00156  -0.00156   0.00000  -0.00156 ...
  -0.10826   0.18876   0.00000   0.00000   0.00000   0.00000   0.00000   0.00000  -0.00361   0.00361   0.00000   0.00361 ...
   0.00000   0.00000   1.01029  -0.00044   0.00044  -0.04071   0.00096  -0.00096   0.00000   0.00000   0.00000   0.00000 ...
   0.00000   0.00000  -0.00044   1.01029  -0.00044   0.00096  -0.04071   0.00096   0.00000   0.00000   0.00000   0.00000 ...
   0.00000   0.00000   0.00044  -0.00044   1.01029  -0.00096   0.00096  -0.04071   0.00000   0.00000   0.00000   0.00000 ...
   0.00000   0.00000  -0.04071   0.00096  -0.00096   0.16168  -0.00178   0.00178   0.00000   0.00000   0.00000   0.00000 ...
   0.00000   0.00000   0.00096  -0.04071   0.00096  -0.00178   0.16168  -0.00178   0.00000   0.00000   0.00000   0.00000 ...
   0.00000   0.00000  -0.00096   0.00096  -0.04071   0.00178  -0.00178   0.16168   0.00000   0.00000   0.00000   0.00000 ...
   0.00156  -0.00361   0.00000   0.00000   0.00000   0.00000   0.00000   0.00000   0.96677  -0.00123  -0.00608  -0.00123 ...
  -0.00156   0.00361   0.00000   0.00000   0.00000   0.00000   0.00000   0.00000  -0.00123   0.96677  -0.00304   0.00123 ...
   0.00000   0.00000   0.00000   0.00000   0.00000   0.00000   0.00000   0.00000  -0.00608  -0.00304   0.79267  -0.00304 ...
  -0.00156   0.00361   0.00000   0.00000   0.00000   0.00000   0.00000   0.00000  -0.00123   0.00123  -0.00304   0.96677 ...
   ...  only 12  components have been written...

 *********** RHOIJ (atom   1, ispden=2) **********
   1.05556  -0.10730   0.00000   0.00000   0.00000   0.00000   0.00000   0.00000  -0.00023   0.00023   0.00000   0.00023 ...
  -0.10730   0.18865   0.00000   0.00000   0.00000   0.00000   0.00000   0.00000   0.00063  -0.00063   0.00000  -0.00063 ...
   0.00000   0.00000   1.00879  -0.00020   0.00020  -0.03791   0.00074  -0.00074   0.00000   0.00000   0.00000   0.00000 ...
   0.00000   0.00000  -0.00020   1.00879  -0.00020   0.00074  -0.03791   0.00074   0.00000   0.00000   0.00000   0.00000 ...
   0.00000   0.00000   0.00020  -0.00020   1.00879  -0.00074   0.00074  -0.03791   0.00000   0.00000   0.00000   0.00000 ...
   0.00000   0.00000  -0.03791   0.00074  -0.00074   0.15886  -0.00291   0.00291   0.00000   0.00000   0.00000   0.00000 ...
   0.00000   0.00000   0.00074  -0.03791   0.00074  -0.00291   0.15886  -0.00291   0.00000   0.00000   0.00000   0.00000 ...
   0.00000   0.00000  -0.00074   0.00074  -0.03791   0.00291  -0.00291   0.15886   0.00000   0.00000   0.00000   0.00000 ...
  -0.00023   0.00063   0.00000   0.00000   0.00000   0.00000   0.00000   0.00000   0.91563  -0.00289  -0.00525  -0.00289 ...
   0.00023  -0.00063   0.00000   0.00000   0.00000   0.00000   0.00000   0.00000  -0.00289   0.91563  -0.00262   0.00289 ...
   0.00000   0.00000   0.00000   0.00000   0.00000   0.00000   0.00000   0.00000  -0.00525  -0.00262   0.41271  -0.00262 ...
   0.00023  -0.00063   0.00000   0.00000   0.00000   0.00000   0.00000   0.00000  -0.00289   0.00289  -0.00262   0.91563 ...
   ...  only 12  components have been written...

 *********** RHOIJ (atom   4, ispden=1) **********
   0.90194   0.01302  -0.00203   0.00203  -0.00203   0.00127  -0.00127   0.00127  -0.00165   0.00165   0.00000   0.00165 ...
   0.01302   0.01493  -0.00019   0.00019  -0.00019  -0.00188   0.00188  -0.00188  -0.00063   0.00063   0.00000   0.00063 ...
  -0.00203  -0.00019   0.77660  -0.00052   0.00052   0.02564  -0.00047   0.00047   0.00319  -0.00319  -0.00210   0.00008 ...
   0.00203   0.00019  -0.00052   0.77660  -0.00052  -0.00047   0.02564  -0.00047   0.00008   0.00319  -0.00420   0.00319 ...
  -0.00203  -0.00019   0.00052  -0.00052   0.77660   0.00047  -0.00047   0.02564   0.00319   0.00008  -0.00210  -0.00319 ...
   0.00127  -0.00188   0.02564  -0.00047   0.00047   0.01518  -0.00090   0.00090   0.00033  -0.00033  -0.00062   0.00004 ...
  -0.00127   0.00188  -0.00047   0.02564  -0.00047  -0.00090   0.01518  -0.00090   0.00004   0.00033  -0.00124   0.00033 ...
   0.00127  -0.00188   0.00047  -0.00047   0.02564   0.00090  -0.00090   0.01518   0.00033   0.00004  -0.00062  -0.00033 ...
  -0.00165  -0.00063   0.00319   0.00008   0.00319   0.00033   0.00004   0.00033   0.00934  -0.00003   0.00076  -0.00003 ...
   0.00165   0.00063  -0.00319   0.00319   0.00008  -0.00033   0.00033   0.00004  -0.00003   0.00934   0.00038   0.00003 ...
   0.00000   0.00000  -0.00210  -0.00420  -0.00210  -0.00062  -0.00124  -0.00062   0.00076   0.00038   0.01073   0.00038 ...
   0.00165   0.00063   0.00008   0.00319  -0.00319   0.00004   0.00033  -0.00033  -0.00003   0.00003   0.00038   0.00934 ...
   ...  only 12  components have been written...

 *********** RHOIJ (atom   4, ispden=2) **********
   0.90194   0.01302   0.00203  -0.00203   0.00203  -0.00127   0.00127  -0.00127  -0.00165   0.00165   0.00000   0.00165 ...
   0.01302   0.01493   0.00019  -0.00019   0.00019   0.00188  -0.00188   0.00188  -0.00063   0.00063   0.00000   0.00063 ...
   0.00203   0.00019   0.77660  -0.00052   0.00052   0.02564  -0.00047   0.00047  -0.00319   0.00319   0.00210  -0.00008 ...
  -0.00203  -0.00019  -0.00052   0.77660  -0.00052  -0.00047   0.02564  -0.00047  -0.00008  -0.00319   0.00420  -0.00319 ...
   0.00203   0.00019   0.00052  -0.00052   0.77660   0.00047  -0.00047   0.02564  -0.00319  -0.00008   0.00210   0.00319 ...
  -0.00127   0.00188   0.02564  -0.00047   0.00047   0.01518  -0.00090   0.00090  -0.00033   0.00033   0.00062  -0.00004 ...
   0.00127  -0.00188  -0.00047   0.02564  -0.00047  -0.00090   0.01518  -0.00090  -0.00004  -0.00033   0.00124  -0.00033 ...
  -0.00127   0.00188   0.00047  -0.00047   0.02564   0.00090  -0.00090   0.01518  -0.00033  -0.00004   0.00062   0.00033 ...
  -0.00165  -0.00063  -0.00319  -0.00008  -0.00319  -0.00033  -0.00004  -0.00033   0.00934  -0.00003   0.00076  -0.00003 ...
   0.00165   0.00063   0.00319  -0.00319  -0.00008   0.00033  -0.00033  -0.00004  -0.00003   0.00934   0.00038   0.00003 ...
   0.00000   0.00000   0.00210   0.00420   0.00210   0.00062   0.00124   0.00062   0.00076   0.00038   0.01073   0.00038 ...
   0.00165   0.00063  -0.00008  -0.00319   0.00319  -0.00004  -0.00033   0.00033  -0.00003   0.00003   0.00038   0.00934 ...
   ...  only 12  components have been written...

 Total charge density [el/Bohr^3]
,     Maximum=    2.0970E+00  at reduced coord.    0.0000    0.0000    0.5000
,     Minimum=    1.0040E-02  at reduced coord.    0.2333    0.2333    0.1333
,  Integrated=    4.8000E+01
 Spin up density      [el/Bohr^3]
,     Maximum=    1.0868E+00  at reduced coord.    0.0000    0.0000    0.0000
,     Minimum=    5.0121E-03  at reduced coord.    0.7667    0.7333    0.3667
,  Integrated=    2.4000E+01
 Spin down density    [el/Bohr^3]
,     Maximum=    1.0868E+00  at reduced coord.    0.0000    0.0000    0.5000
,     Minimum=    5.0121E-03  at reduced coord.    0.2333    0.2333    0.1333
,  Integrated=    2.4000E+01
 Magnetization (spin up - spin down) [el/Bohr^3]
,     Maximum=    8.2233E-02  at reduced coord.    0.1000    0.9000    0.9500
,     Minimum=   -8.2233E-02  at reduced coord.    0.1000    0.1000    0.4500
,  Integrated=    0.0000E+00
 Relative magnetization (=zeta, between -1 and 1)
,     Maximum=    9.2792E-02  at reduced coord.    0.2000    0.8000    0.9000
,     Minimum=   -9.2792E-02  at reduced coord.    0.2000    0.2000    0.4000

 Integrated total density in atomic spheres:
 -------------------------------------------
 Atom  Sphere radius  Integrated_up_density  Integrated_dn_density  Total(up+dn)   Diff(up-dn)
    1        2.30000             8.71714049             7.85694719   16.57408768    0.86019329
    2        2.30000             7.85694719             8.71714049   16.57408768   -0.86019329
    3        1.21105             2.07754994             2.07754994    4.15509989    0.00000000
    4        1.21105             2.07754994             2.07754994    4.15509989    0.00000000
 Note: Diff(up-dn) can be considered as a rough approximation of a local magnetic moment.


 ETOT  2  -373.30476989195    -3.201E+00 4.436E-02 1.050E+02
 scprqt: <Vxc>= -5.3278780E-01 hartree

 Pulay update with  1 previous iterations:
 mixing of old trial potential : alpha(m:m-4)=  0.737      0.263

 ****** Psp strength Dij in Ha (atom      1) *****) *****
 (antiferromagnetism case: only one spin component)
 Component up:
  -2.83782  -0.95369  -0.00000  -0.00000  -0.00000  -0.00000  -0.00000  -0.00000  -0.00007   0.00007   0.00000   0.00007 ...
  -0.95369  -0.57575  -0.00000  -0.00000  -0.00000  -0.00000  -0.00000  -0.00000   0.00005  -0.00005   0.00000  -0.00005 ...
  -0.00000  -0.00000  -2.26492   0.00005  -0.00005  -0.51343  -0.00003   0.00003  -0.00000  -0.00000   0.00000   0.00000 ...
  -0.00000  -0.00000   0.00005  -2.26492   0.00005  -0.00003  -0.51343  -0.00003   0.00000  -0.00000  -0.00000  -0.00000 ...
  -0.00000  -0.00000  -0.00005   0.00005  -2.26492   0.00003  -0.00003  -0.51343  -0.00000   0.00000   0.00000  -0.00000 ...
  -0.00000  -0.00000  -0.51343  -0.00003   0.00003  -0.32571  -0.00002   0.00002  -0.00000  -0.00000   0.00000   0.00000 ...
  -0.00000  -0.00000  -0.00003  -0.51343  -0.00003  -0.00002  -0.32571  -0.00002   0.00000  -0.00000  -0.00000  -0.00000 ...
  -0.00000  -0.00000   0.00003  -0.00003  -0.51343   0.00002  -0.00002  -0.32571  -0.00000   0.00000   0.00000  -0.00000 ...
  -0.00007   0.00005  -0.00000   0.00000  -0.00000  -0.00000   0.00000  -0.00000  -0.34698   0.00012  -0.00008   0.00012 ...
   0.00007  -0.00005  -0.00000  -0.00000   0.00000  -0.00000  -0.00000   0.00000   0.00012  -0.34698  -0.00004  -0.00012 ...
   0.00000   0.00000   0.00000  -0.00000   0.00000   0.00000  -0.00000   0.00000  -0.00008  -0.00004  -0.35521  -0.00004 ...
   0.00007  -0.00005   0.00000  -0.00000  -0.00000   0.00000  -0.00000  -0.00000   0.00012  -0.00012  -0.00004  -0.34698 ...
   ...  only 12  components have been written...

 ****** Psp strength Dij in Ha (atom      4) *****) *****
 (antiferromagnetism case: only one spin component)
 Component up:
   0.64179   1.07979  -0.00000   0.00000  -0.00000  -0.00000   0.00000  -0.00000  -0.00002   0.00002  -0.00000   0.00002 ...
   1.07979   1.81368  -0.00000   0.00000  -0.00000  -0.00001   0.00001  -0.00001  -0.00003   0.00003  -0.00000   0.00003 ...
  -0.00000  -0.00000  -0.28443  -0.00006   0.00006  -0.32032  -0.00008   0.00008   0.00000  -0.00000   0.00000   0.00000 ...
   0.00000   0.00000  -0.00006  -0.28443  -0.00006  -0.00008  -0.32032  -0.00008   0.00000   0.00000   0.00000   0.00000 ...
  -0.00000  -0.00000   0.00006  -0.00006  -0.28443   0.00008  -0.00008  -0.32032   0.00000   0.00000   0.00000  -0.00000 ...
  -0.00000  -0.00001  -0.32032  -0.00008   0.00008  -0.32598  -0.00012   0.00012   0.00001  -0.00001   0.00000   0.00000 ...
   0.00000   0.00001  -0.00008  -0.32032  -0.00008  -0.00012  -0.32598  -0.00012   0.00000   0.00001   0.00000   0.00001 ...
  -0.00000  -0.00001   0.00008  -0.00008  -0.32032   0.00012  -0.00012  -0.32598   0.00001   0.00000   0.00000  -0.00001 ...
  -0.00002  -0.00003   0.00000   0.00000   0.00000   0.00001   0.00000   0.00001  -0.01631  -0.00001  -0.00001  -0.00001 ...
   0.00002   0.00003  -0.00000   0.00000   0.00000  -0.00001   0.00001   0.00000  -0.00001  -0.01631  -0.00000   0.00001 ...
  -0.00000  -0.00000   0.00000   0.00000   0.00000   0.00000   0.00000   0.00000  -0.00001  -0.00000  -0.01632  -0.00000 ...
   0.00002   0.00003   0.00000   0.00000  -0.00000   0.00000   0.00001  -0.00001  -0.00001   0.00001  -0.00000  -0.01631 ...
   ...  only 12  components have been written...


 ITER STEP NUMBER     3
 vtorho : nnsclo_now=  1, note that nnsclo,dbl_nnsclo,istep=  0 0  3
 newocc : new Fermi energy is       0.192033 , with nelect=     48.000000
  Number of bissection calls =  52
 newocc : computed new occ. numbers for occopt=    7 , spin-unpolarized case.
 2.000 2.000 2.000 2.000 2.000 2.000 2.000 2.000 2.000 2.000 2.000 2.000
 2.000 2.000 2.000 2.000 2.000 2.000 2.000 2.000 2.000 2.000 1.835 1.665
 0.169 0.000 0.000 0.000 0.000 0.000 0.000 0.000 0.000 0.000 0.000 0.000
 0.000 0.000 0.000 0.000
 2.000 2.000 2.000 2.000 2.000 2.000 2.000 2.000 2.000 2.000 2.000 2.000
 2.000 2.000 2.000 2.000 2.000 2.000 2.000 2.000 2.000 2.000 1.995 1.707
 0.474 0.000 0.000 0.000 0.000 0.000 0.000 0.000 0.000 0.000 0.000 0.000
 0.000 0.000 0.000 0.000
 2.000 2.000 2.000 2.000 2.000 2.000 2.000 2.000 2.000 2.000 2.000 2.000
 2.000 2.000 2.000 2.000 2.000 2.000 2.000 2.000 2.000 2.000 1.919 1.469
 0.591 0.000 0.000 0.000 0.000 0.000 0.000 0.000 0.000 0.000 0.000 0.000
 0.000 0.000 0.000 0.000
mkrho: echo density (plane-wave part only)
 Total charge density [el/Bohr^3]
,     Maximum=    8.0356E-01  at reduced coord.    0.0000    0.0000    0.5000
,     Minimum=    1.2171E-02  at reduced coord.    0.2500    0.2500    0.1250
,  Integrated=    2.5406E+01
 Spin up density      [el/Bohr^3]
,     Maximum=    4.0214E-01  at reduced coord.    0.0000    0.0000    0.0000
,     Minimum=    6.0840E-03  at reduced coord.    0.2500    0.2500    0.1250
,  Integrated=    1.2703E+01
 Spin down density    [el/Bohr^3]
,     Maximum=    4.0214E-01  at reduced coord.    0.0000    0.0000    0.5000
,     Minimum=    6.0840E-03  at reduced coord.    0.7500    0.7500    0.3750
,  Integrated=    1.2703E+01
 Magnetization (spin up - spin down) [el/Bohr^3]
,     Maximum=    1.8255E-02  at reduced coord.    0.1500    0.9000    0.9250
,     Minimum=   -1.8255E-02  at reduced coord.    0.1500    0.1000    0.4250
,  Integrated=    0.0000E+00
 Relative magnetization (=zeta, between -1 and 1)
,     Maximum=    6.6177E-02  at reduced coord.    0.1500    0.8500    0.9250
,     Minimum=   -6.6177E-02  at reduced coord.    0.1500    0.1500    0.4250

 *********** RHOIJ (atom   1, ispden=1) **********
   1.06173  -0.12796   0.00000   0.00000   0.00000   0.00000   0.00000   0.00000   0.00124  -0.00124   0.00000  -0.00124 ...
  -0.12796   0.25432   0.00000   0.00000   0.00000   0.00000   0.00000   0.00000  -0.00293   0.00293   0.00000   0.00293 ...
   0.00000   0.00000   1.01735   0.00035  -0.00035  -0.05707  -0.00103   0.00103   0.00000   0.00000   0.00000   0.00000 ...
   0.00000   0.00000   0.00035   1.01735   0.00035  -0.00103  -0.05707  -0.00103   0.00000   0.00000   0.00000   0.00000 ...
   0.00000   0.00000  -0.00035   0.00035   1.01735   0.00103  -0.00103  -0.05707   0.00000   0.00000   0.00000   0.00000 ...
   0.00000   0.00000  -0.05707  -0.00103   0.00103   0.19758   0.00311  -0.00311   0.00000   0.00000   0.00000   0.00000 ...
   0.00000   0.00000  -0.00103  -0.05707  -0.00103   0.00311   0.19758   0.00311   0.00000   0.00000   0.00000   0.00000 ...
   0.00000   0.00000   0.00103  -0.00103  -0.05707  -0.00311   0.00311   0.19758   0.00000   0.00000   0.00000   0.00000 ...
   0.00124  -0.00293   0.00000   0.00000   0.00000   0.00000   0.00000   0.00000   0.98336   0.00066  -0.00049   0.00066 ...
  -0.00124   0.00293   0.00000   0.00000   0.00000   0.00000   0.00000   0.00000   0.00066   0.98336  -0.00024  -0.00066 ...
   0.00000   0.00000   0.00000   0.00000   0.00000   0.00000   0.00000   0.00000  -0.00049  -0.00024   0.86632  -0.00024 ...
  -0.00124   0.00293   0.00000   0.00000   0.00000   0.00000   0.00000   0.00000   0.00066  -0.00066  -0.00024   0.98336 ...
   ...  only 12  components have been written...

 *********** RHOIJ (atom   1, ispden=2) **********
   1.06089  -0.12714   0.00000   0.00000   0.00000   0.00000   0.00000   0.00000   0.00111  -0.00111   0.00000  -0.00111 ...
  -0.12714   0.25552   0.00000   0.00000   0.00000   0.00000   0.00000   0.00000  -0.00262   0.00262   0.00000   0.00262 ...
   0.00000   0.00000   1.01589  -0.00045   0.00045  -0.05529   0.00146  -0.00146   0.00000   0.00000   0.00000   0.00000 ...
   0.00000   0.00000  -0.00045   1.01589  -0.00045   0.00146  -0.05529   0.00146   0.00000   0.00000   0.00000   0.00000 ...
   0.00000   0.00000   0.00045  -0.00045   1.01589  -0.00146   0.00146  -0.05529   0.00000   0.00000   0.00000   0.00000 ...
   0.00000   0.00000  -0.05529   0.00146  -0.00146   0.20061  -0.00486   0.00486   0.00000   0.00000   0.00000   0.00000 ...
   0.00000   0.00000   0.00146  -0.05529   0.00146  -0.00486   0.20061  -0.00486   0.00000   0.00000   0.00000   0.00000 ...
   0.00000   0.00000  -0.00146   0.00146  -0.05529   0.00486  -0.00486   0.20061   0.00000   0.00000   0.00000   0.00000 ...
   0.00111  -0.00262   0.00000   0.00000   0.00000   0.00000   0.00000   0.00000   0.96843   0.00189   0.00426   0.00189 ...
  -0.00111   0.00262   0.00000   0.00000   0.00000   0.00000   0.00000   0.00000   0.00189   0.96843   0.00213  -0.00189 ...
   0.00000   0.00000   0.00000   0.00000   0.00000   0.00000   0.00000   0.00000   0.00426   0.00213   0.66797   0.00213 ...
  -0.00111   0.00262   0.00000   0.00000   0.00000   0.00000   0.00000   0.00000   0.00189  -0.00189   0.00213   0.96843 ...
   ...  only 12  components have been written...

 *********** RHOIJ (atom   4, ispden=1) **********
   0.98028  -0.03223  -0.00214   0.00214  -0.00214   0.00052  -0.00052   0.00052  -0.00236   0.00236   0.00000   0.00236 ...
  -0.03223   0.01661  -0.00366   0.00366  -0.00366  -0.00051   0.00051  -0.00051  -0.00050   0.00050   0.00000   0.00050 ...
  -0.00214  -0.00366   0.94646   0.01453  -0.01453  -0.14795   0.00032  -0.00032   0.00127  -0.00127  -0.00124   0.00061 ...
   0.00214   0.00366   0.01453   0.94646   0.01453   0.00032  -0.14795   0.00032   0.00061   0.00127  -0.00248   0.00127 ...
  -0.00214  -0.00366  -0.01453   0.01453   0.94646  -0.00032   0.00032  -0.14795   0.00127   0.00061  -0.00124  -0.00127 ...
   0.00052  -0.00051  -0.14795   0.00032  -0.00032   0.02948  -0.00027   0.00027  -0.00018   0.00018   0.00016   0.00000 ...
  -0.00052   0.00051   0.00032  -0.14795   0.00032  -0.00027   0.02948  -0.00027   0.00000  -0.00018   0.00033  -0.00018 ...
   0.00052  -0.00051  -0.00032   0.00032  -0.14795   0.00027  -0.00027   0.02948  -0.00018   0.00000   0.00016   0.00018 ...
  -0.00236  -0.00050   0.00127   0.00061   0.00127  -0.00018   0.00000  -0.00018   0.00994  -0.00004   0.00115  -0.00004 ...
   0.00236   0.00050  -0.00127   0.00127   0.00061   0.00018  -0.00018   0.00000  -0.00004   0.00994   0.00058   0.00004 ...
   0.00000   0.00000  -0.00124  -0.00248  -0.00124   0.00016   0.00033   0.00016   0.00115   0.00058   0.00801   0.00058 ...
   0.00236   0.00050   0.00061   0.00127  -0.00127   0.00000  -0.00018   0.00018  -0.00004   0.00004   0.00058   0.00994 ...
   ...  only 12  components have been written...

 *********** RHOIJ (atom   4, ispden=2) **********
   0.98028  -0.03223   0.00214  -0.00214   0.00214  -0.00052   0.00052  -0.00052  -0.00236   0.00236   0.00000   0.00236 ...
  -0.03223   0.01661   0.00366  -0.00366   0.00366   0.00051  -0.00051   0.00051  -0.00050   0.00050   0.00000   0.00050 ...
   0.00214   0.00366   0.94646   0.01453  -0.01453  -0.14795   0.00032  -0.00032  -0.00127   0.00127   0.00124  -0.00061 ...
  -0.00214  -0.00366   0.01453   0.94646   0.01453   0.00032  -0.14795   0.00032  -0.00061  -0.00127   0.00248  -0.00127 ...
   0.00214   0.00366  -0.01453   0.01453   0.94646  -0.00032   0.00032  -0.14795  -0.00127  -0.00061   0.00124   0.00127 ...
  -0.00052   0.00051  -0.14795   0.00032  -0.00032   0.02948  -0.00027   0.00027   0.00018  -0.00018  -0.00016  -0.00000 ...
   0.00052  -0.00051   0.00032  -0.14795   0.00032  -0.00027   0.02948  -0.00027  -0.00000   0.00018  -0.00033   0.00018 ...
  -0.00052   0.00051  -0.00032   0.00032  -0.14795   0.00027  -0.00027   0.02948   0.00018  -0.00000  -0.00016  -0.00018 ...
  -0.00236  -0.00050  -0.00127  -0.00061  -0.00127   0.00018  -0.00000   0.00018   0.00994  -0.00004   0.00115  -0.00004 ...
   0.00236   0.00050   0.00127  -0.00127  -0.00061  -0.00018   0.00018  -0.00000  -0.00004   0.00994   0.00058   0.00004 ...
   0.00000   0.00000   0.00124   0.00248   0.00124  -0.00016  -0.00033  -0.00016   0.00115   0.00058   0.00801   0.00058 ...
   0.00236   0.00050  -0.00061  -0.00127   0.00127  -0.00000   0.00018  -0.00018  -0.00004   0.00004   0.00058   0.00994 ...
   ...  only 12  components have been written...

 Total charge density [el/Bohr^3]
,     Maximum=    2.1847E+00  at reduced coord.    0.0000    0.0000    0.5000
,     Minimum=    1.2240E-02  at reduced coord.    0.2667    0.2333    0.1167
,  Integrated=    4.8000E+01
 Spin up density      [el/Bohr^3]
,     Maximum=    1.1110E+00  at reduced coord.    0.0000    0.0000    0.0000
,     Minimum=    6.1128E-03  at reduced coord.    0.2667    0.2333    0.1167
,  Integrated=    2.4000E+01
 Spin down density    [el/Bohr^3]
,     Maximum=    1.1110E+00  at reduced coord.    0.0000    0.0000    0.5000
,     Minimum=    6.1128E-03  at reduced coord.    0.7333    0.7333    0.3833
,  Integrated=    2.4000E+01
 Magnetization (spin up - spin down) [el/Bohr^3]
,     Maximum=    4.2095E-02  at reduced coord.    0.1000    0.9000    0.9500
,     Minimum=   -4.2095E-02  at reduced coord.    0.1000    0.1000    0.4500
,  Integrated=    0.0000E+00
 Relative magnetization (=zeta, between -1 and 1)
,     Maximum=    4.1713E-02  at reduced coord.    0.1667    0.8333    0.9167
,     Minimum=   -4.1713E-02  at reduced coord.    0.1667    0.1667    0.4167

 Integrated total density in atomic spheres:
 -------------------------------------------
 Atom  Sphere radius  Integrated_up_density  Integrated_dn_density  Total(up+dn)   Diff(up-dn)
    1        2.30000             8.96817950             8.57332771   17.54150721    0.39485179
    2        2.30000             8.57332771             8.96817950   17.54150721   -0.39485179
    3        1.21105             1.61513533             1.61513533    3.23027066    0.00000000
    4        1.21105             1.61513533             1.61513533    3.23027066    0.00000000
 Note: Diff(up-dn) can be considered as a rough approximation of a local magnetic moment.


 ETOT  3  -373.15472142392     1.500E-01 2.460E-02 6.607E+01
 scprqt: <Vxc>= -5.2865169E-01 hartree

 Pulay update with  2 previous iterations:
 mixing of old trial potential : alpha(m:m-4)=  0.909      0.444     -0.353

 ****** Psp strength Dij in Ha (atom      1) *****) *****
 (antiferromagnetism case: only one spin component)
 Component up:
  -2.72482  -0.89890  -0.00000  -0.00000  -0.00000  -0.00000  -0.00000  -0.00000   0.00038  -0.00038  -0.00000  -0.00038 ...
  -0.89890  -0.55710  -0.00000  -0.00000  -0.00000  -0.00000  -0.00000  -0.00000   0.00014  -0.00014  -0.00000  -0.00014 ...
  -0.00000  -0.00000  -2.10532  -0.00034   0.00034  -0.46676  -0.00009   0.00009  -0.00000  -0.00000   0.00000   0.00000 ...
  -0.00000  -0.00000  -0.00034  -2.10532  -0.00034  -0.00009  -0.46676  -0.00009   0.00000  -0.00000  -0.00000  -0.00000 ...
  -0.00000  -0.00000   0.00034  -0.00034  -2.10532   0.00009  -0.00009  -0.46676  -0.00000   0.00000   0.00000  -0.00000 ...
  -0.00000  -0.00000  -0.46676  -0.00009   0.00009  -0.31254  -0.00004   0.00004  -0.00000  -0.00000   0.00000   0.00000 ...
  -0.00000  -0.00000  -0.00009  -0.46676  -0.00009  -0.00004  -0.31254  -0.00004   0.00000  -0.00000  -0.00000  -0.00000 ...
  -0.00000  -0.00000   0.00009  -0.00009  -0.46676   0.00004  -0.00004  -0.31254  -0.00000   0.00000   0.00000  -0.00000 ...
   0.00038   0.00014  -0.00000   0.00000  -0.00000  -0.00000   0.00000  -0.00000  -0.20140  -0.00025  -0.00022  -0.00025 ...
  -0.00038  -0.00014  -0.00000  -0.00000   0.00000  -0.00000  -0.00000   0.00000  -0.00025  -0.20140  -0.00011   0.00025 ...
  -0.00000  -0.00000   0.00000  -0.00000   0.00000   0.00000  -0.00000   0.00000  -0.00022  -0.00011  -0.21428  -0.00011 ...
  -0.00038  -0.00014   0.00000  -0.00000  -0.00000   0.00000  -0.00000  -0.00000  -0.00025   0.00025  -0.00011  -0.20140 ...
   ...  only 12  components have been written...

 ****** Psp strength Dij in Ha (atom      4) *****) *****
 (antiferromagnetism case: only one spin component)
 Component up:
   0.64862   1.09192   0.00009  -0.00009   0.00009   0.00015  -0.00015   0.00015   0.00005  -0.00005   0.00000  -0.00005 ...
   1.09192   1.83521   0.00015  -0.00015   0.00015   0.00023  -0.00023   0.00023   0.00007  -0.00007   0.00000  -0.00007 ...
   0.00009   0.00015  -0.30450   0.00017  -0.00017  -0.34907   0.00024  -0.00024  -0.00004   0.00004   0.00002  -0.00000 ...
  -0.00009  -0.00015   0.00017  -0.30450   0.00017   0.00024  -0.34907   0.00024  -0.00000  -0.00004   0.00004  -0.00004 ...
   0.00009   0.00015  -0.00017   0.00017  -0.30450  -0.00024   0.00024  -0.34907  -0.00004  -0.00000   0.00002   0.00004 ...
   0.00015   0.00023  -0.34907   0.00024  -0.00024  -0.36710   0.00034  -0.00034  -0.00006   0.00006   0.00003  -0.00000 ...
  -0.00015  -0.00023   0.00024  -0.34907   0.00024   0.00034  -0.36710   0.00034  -0.00000  -0.00006   0.00006  -0.00006 ...
   0.00015   0.00023  -0.00024   0.00024  -0.34907  -0.00034   0.00034  -0.36710  -0.00006  -0.00000   0.00003   0.00006 ...
   0.00005   0.00007  -0.00004  -0.00000  -0.00004  -0.00006  -0.00000  -0.00006  -0.01746   0.00002   0.00002   0.00002 ...
  -0.00005  -0.00007   0.00004  -0.00004  -0.00000   0.00006  -0.00006  -0.00000   0.00002  -0.01746   0.00001  -0.00002 ...
   0.00000   0.00000   0.00002   0.00004   0.00002   0.00003   0.00006   0.00003   0.00002   0.00001  -0.01747   0.00001 ...
  -0.00005  -0.00007  -0.00000  -0.00004   0.00004  -0.00000  -0.00006   0.00006   0.00002  -0.00002   0.00001  -0.01746 ...
   ...  only 12  components have been written...


 ITER STEP NUMBER     4
 vtorho : nnsclo_now=  1, note that nnsclo,dbl_nnsclo,istep=  0 0  4
 newocc : new Fermi energy is       0.323143 , with nelect=     48.000000
  Number of bissection calls =  51
 newocc : computed new occ. numbers for occopt=    7 , spin-unpolarized case.
 2.000 2.000 2.000 2.000 2.000 2.000 2.000 2.000 2.000 2.000 2.000 2.000
 2.000 2.000 2.000 2.000 2.000 2.000 2.000 2.000 1.998 1.979 1.927 1.913
 0.899 0.010 0.000 0.000 0.000 0.000 0.000 0.000 0.000 0.000 0.000 0.000
 0.000 0.000 0.000 0.000
 2.000 2.000 2.000 2.000 2.000 2.000 2.000 2.000 2.000 2.000 2.000 2.000
 2.000 2.000 2.000 2.000 2.000 2.000 1.993 1.983 1.945 1.893 1.815 1.450
 0.277 0.014 0.000 0.000 0.000 0.000 0.000 0.000 0.000 0.000 0.000 0.000
 0.000 0.000 0.000 0.000
 2.000 2.000 2.000 2.000 2.000 2.000 2.000 2.000 2.000 2.000 2.000 2.000
 2.000 2.000 2.000 2.000 2.000 2.000 2.000 1.996 1.994 1.964 1.821 1.783
 0.954 0.021 0.000 0.000 0.000 0.000 0.000 0.000 0.000 0.000 0.000 0.000
 0.000 0.000 0.000 0.000
mkrho: echo density (plane-wave part only)
 Total charge density [el/Bohr^3]
,     Maximum=    7.3192E-01  at reduced coord.    0.0000    0.0000    0.5000
,     Minimum=    1.6184E-02  at reduced coord.    0.2500    0.2500    0.1250
,  Integrated=    2.6466E+01
 Spin up density      [el/Bohr^3]
,     Maximum=    3.6622E-01  at reduced coord.    0.0000    0.0000    0.5000
,     Minimum=    8.0498E-03  at reduced coord.    0.2500    0.2500    0.1250
,  Integrated=    1.3233E+01
 Spin down density    [el/Bohr^3]
,     Maximum=    3.6622E-01  at reduced coord.    0.0000    0.0000    0.0000
,     Minimum=    8.0498E-03  at reduced coord.    0.7500    0.7500    0.3750
,  Integrated=    1.3233E+01
 Magnetization (spin up - spin down) [el/Bohr^3]
,     Maximum=    4.4874E-02  at reduced coord.    0.1500    0.9000    0.9250
,     Minimum=   -4.4874E-02  at reduced coord.    0.1500    0.1000    0.4250
,  Integrated=    0.0000E+00
 Relative magnetization (=zeta, between -1 and 1)
,     Maximum=    2.0490E-01  at reduced coord.    0.2000    0.8500    0.9000
,     Minimum=   -2.0490E-01  at reduced coord.    0.2000    0.1500    0.4000

 *********** RHOIJ (atom   1, ispden=1) **********
   1.02435  -0.06902   0.00000   0.00000   0.00000   0.00000   0.00000   0.00000   0.00117  -0.00117   0.00000  -0.00117 ...
  -0.06902   0.19192   0.00000   0.00000   0.00000   0.00000   0.00000   0.00000  -0.00275   0.00275   0.00000   0.00275 ...
   0.00000   0.00000   0.98832  -0.00023   0.00023  -0.01021   0.00066  -0.00066   0.00000   0.00000   0.00000   0.00000 ...
   0.00000   0.00000  -0.00023   0.98832  -0.00023   0.00066  -0.01021   0.00066   0.00000   0.00000   0.00000   0.00000 ...
   0.00000   0.00000   0.00023  -0.00023   0.98832  -0.00066   0.00066  -0.01021   0.00000   0.00000   0.00000   0.00000 ...
   0.00000   0.00000  -0.01021   0.00066  -0.00066   0.17773  -0.00191   0.00191   0.00000   0.00000   0.00000   0.00000 ...
   0.00000   0.00000   0.00066  -0.01021   0.00066  -0.00191   0.17773  -0.00191   0.00000   0.00000   0.00000   0.00000 ...
   0.00000   0.00000  -0.00066   0.00066  -0.01021   0.00191  -0.00191   0.17773   0.00000   0.00000   0.00000   0.00000 ...
   0.00117  -0.00275   0.00000   0.00000   0.00000   0.00000   0.00000   0.00000   0.91148  -0.00059  -0.00295  -0.00059 ...
  -0.00117   0.00275   0.00000   0.00000   0.00000   0.00000   0.00000   0.00000  -0.00059   0.91148  -0.00147   0.00059 ...
   0.00000   0.00000   0.00000   0.00000   0.00000   0.00000   0.00000   0.00000  -0.00295  -0.00147   0.84196  -0.00147 ...
  -0.00117   0.00275   0.00000   0.00000   0.00000   0.00000   0.00000   0.00000  -0.00059   0.00059  -0.00147   0.91148 ...
   ...  only 12  components have been written...

 *********** RHOIJ (atom   1, ispden=2) **********
   1.02463  -0.07073   0.00000   0.00000   0.00000   0.00000   0.00000   0.00000   0.00011  -0.00011   0.00000  -0.00011 ...
  -0.07073   0.19864   0.00000   0.00000   0.00000   0.00000   0.00000   0.00000  -0.00038   0.00038   0.00000   0.00038 ...
   0.00000   0.00000   0.98639  -0.00035   0.00035  -0.00764   0.00094  -0.00094   0.00000   0.00000   0.00000   0.00000 ...
   0.00000   0.00000  -0.00035   0.98639  -0.00035   0.00094  -0.00764   0.00094   0.00000   0.00000   0.00000   0.00000 ...
   0.00000   0.00000   0.00035  -0.00035   0.98639  -0.00094   0.00094  -0.00764   0.00000   0.00000   0.00000   0.00000 ...
   0.00000   0.00000  -0.00764   0.00094  -0.00094   0.17984  -0.00250   0.00250   0.00000   0.00000   0.00000   0.00000 ...
   0.00000   0.00000   0.00094  -0.00764   0.00094  -0.00250   0.17984  -0.00250   0.00000   0.00000   0.00000   0.00000 ...
   0.00000   0.00000  -0.00094   0.00094  -0.00764   0.00250  -0.00250   0.17984   0.00000   0.00000   0.00000   0.00000 ...
   0.00011  -0.00038   0.00000   0.00000   0.00000   0.00000   0.00000   0.00000   0.84398  -0.00031   0.00907  -0.00031 ...
  -0.00011   0.00038   0.00000   0.00000   0.00000   0.00000   0.00000   0.00000  -0.00031   0.84398   0.00453   0.00031 ...
   0.00000   0.00000   0.00000   0.00000   0.00000   0.00000   0.00000   0.00000   0.00907   0.00453   0.33776   0.00453 ...
  -0.00011   0.00038   0.00000   0.00000   0.00000   0.00000   0.00000   0.00000  -0.00031   0.00031   0.00453   0.84398 ...
   ...  only 12  components have been written...

 *********** RHOIJ (atom   4, ispden=1) **********
   1.00304  -0.02776  -0.00105   0.00105  -0.00105  -0.00037   0.00037  -0.00037  -0.00079   0.00079   0.00000   0.00079 ...
  -0.02776   0.01359  -0.00109   0.00109  -0.00109  -0.00204   0.00204  -0.00204  -0.00013   0.00013   0.00000   0.00013 ...
  -0.00105  -0.00109   0.96860   0.00086  -0.00086  -0.07401  -0.00182   0.00182  -0.00236   0.00236   0.00016  -0.00041 ...
   0.00105   0.00109   0.00086   0.96860   0.00086  -0.00182  -0.07401  -0.00182  -0.00041  -0.00236   0.00032  -0.00236 ...
  -0.00105  -0.00109  -0.00086   0.00086   0.96860   0.00182  -0.00182  -0.07401  -0.00236  -0.00041   0.00016   0.00236 ...
  -0.00037  -0.00204  -0.07401  -0.00182   0.00182   0.02164  -0.00074   0.00074   0.00012  -0.00012  -0.00046   0.00015 ...
   0.00037   0.00204  -0.00182  -0.07401  -0.00182  -0.00074   0.02164  -0.00074   0.00015   0.00012  -0.00093   0.00012 ...
  -0.00037  -0.00204   0.00182  -0.00182  -0.07401   0.00074  -0.00074   0.02164   0.00012   0.00015  -0.00046  -0.00012 ...
  -0.00079  -0.00013  -0.00236  -0.00041  -0.00236   0.00012   0.00015   0.00012   0.00929   0.00010   0.00044   0.00010 ...
   0.00079   0.00013   0.00236  -0.00236  -0.00041  -0.00012   0.00012   0.00015   0.00010   0.00929   0.00022  -0.00010 ...
   0.00000   0.00000   0.00016   0.00032   0.00016  -0.00046  -0.00093  -0.00046   0.00044   0.00022   0.00888   0.00022 ...
   0.00079   0.00013  -0.00041  -0.00236   0.00236   0.00015   0.00012  -0.00012   0.00010  -0.00010   0.00022   0.00929 ...
   ...  only 12  components have been written...

 *********** RHOIJ (atom   4, ispden=2) **********
   1.00304  -0.02776   0.00105  -0.00105   0.00105   0.00037  -0.00037   0.00037  -0.00079   0.00079   0.00000   0.00079 ...
  -0.02776   0.01359   0.00109  -0.00109   0.00109   0.00204  -0.00204   0.00204  -0.00013   0.00013   0.00000   0.00013 ...
   0.00105   0.00109   0.96860   0.00086  -0.00086  -0.07401  -0.00182   0.00182   0.00236  -0.00236  -0.00016   0.00041 ...
  -0.00105  -0.00109   0.00086   0.96860   0.00086  -0.00182  -0.07401  -0.00182   0.00041   0.00236  -0.00032   0.00236 ...
   0.00105   0.00109  -0.00086   0.00086   0.96860   0.00182  -0.00182  -0.07401   0.00236   0.00041  -0.00016  -0.00236 ...
   0.00037   0.00204  -0.07401  -0.00182   0.00182   0.02164  -0.00074   0.00074  -0.00012   0.00012   0.00046  -0.00015 ...
  -0.00037  -0.00204  -0.00182  -0.07401  -0.00182  -0.00074   0.02164  -0.00074  -0.00015  -0.00012   0.00093  -0.00012 ...
   0.00037   0.00204   0.00182  -0.00182  -0.07401   0.00074  -0.00074   0.02164  -0.00012  -0.00015   0.00046   0.00012 ...
  -0.00079  -0.00013   0.00236   0.00041   0.00236  -0.00012  -0.00015  -0.00012   0.00929   0.00010   0.00044   0.00010 ...
   0.00079   0.00013  -0.00236   0.00236   0.00041   0.00012  -0.00012  -0.00015   0.00010   0.00929   0.00022  -0.00010 ...
   0.00000   0.00000  -0.00016  -0.00032  -0.00016   0.00046   0.00093   0.00046   0.00044   0.00022   0.00888   0.00022 ...
   0.00079   0.00013   0.00041   0.00236  -0.00236  -0.00015  -0.00012   0.00012   0.00010  -0.00010   0.00022   0.00929 ...
   ...  only 12  components have been written...

 Total charge density [el/Bohr^3]
,     Maximum=    2.0088E+00  at reduced coord.    0.0000    0.0000    0.5000
,     Minimum=    1.6227E-02  at reduced coord.    0.2333    0.2333    0.1333
,  Integrated=    4.8000E+01
 Spin up density      [el/Bohr^3]
,     Maximum=    1.0544E+00  at reduced coord.    0.0000    0.0000    0.0000
,     Minimum=    8.0785E-03  at reduced coord.    0.2667    0.2333    0.1167
,  Integrated=    2.4000E+01
 Spin down density    [el/Bohr^3]
,     Maximum=    1.0544E+00  at reduced coord.    0.0000    0.0000    0.5000
,     Minimum=    8.0785E-03  at reduced coord.    0.7333    0.7333    0.3833
,  Integrated=    2.4000E+01
 Magnetization (spin up - spin down) [el/Bohr^3]
,     Maximum=    1.0846E-01  at reduced coord.    0.1000    0.9000    0.9500
,     Minimum=   -1.0846E-01  at reduced coord.    0.1000    0.1000    0.4500
,  Integrated=    0.0000E+00
 Relative magnetization (=zeta, between -1 and 1)
,     Maximum=    1.2487E-01  at reduced coord.    0.2000    0.8333    0.9000
,     Minimum=   -1.2487E-01  at reduced coord.    0.2000    0.1667    0.4000

 Integrated total density in atomic spheres:
 -------------------------------------------
 Atom  Sphere radius  Integrated_up_density  Integrated_dn_density  Total(up+dn)   Diff(up-dn)
    1        2.30000             8.75749030             7.62466876   16.38215906    1.13282154
    2        2.30000             7.62466876             8.75749030   16.38215906   -1.13282154
    3        1.21105             1.97184693             1.97184693    3.94369387    0.00000000
    4        1.21105             1.97184693             1.97184693    3.94369387   -0.00000000
[...]
   0.00022   0.00036  -0.00003  -0.29817  -0.00003  -0.00004  -0.34005  -0.00004   0.00000   0.00010  -0.00009   0.00010 ...
  -0.00022  -0.00036   0.00003  -0.00003  -0.29817   0.00004  -0.00004  -0.34005   0.00010   0.00000  -0.00005  -0.00010 ...
  -0.00034  -0.00056  -0.34005  -0.00004   0.00004  -0.35428  -0.00005   0.00005   0.00015  -0.00015  -0.00007   0.00000 ...
   0.00034   0.00056  -0.00004  -0.34005  -0.00004  -0.00005  -0.35428  -0.00005   0.00000   0.00015  -0.00014   0.00015 ...
  -0.00034  -0.00056   0.00004  -0.00004  -0.34005   0.00005  -0.00005  -0.35428   0.00015   0.00000  -0.00007  -0.00015 ...
  -0.00001  -0.00001   0.00010   0.00000   0.00010   0.00015   0.00000   0.00015  -0.01699  -0.00000  -0.00000  -0.00000 ...
   0.00001   0.00001  -0.00010   0.00010   0.00000  -0.00015   0.00015   0.00000  -0.00000  -0.01699  -0.00000   0.00000 ...
   0.00000   0.00000  -0.00005  -0.00009  -0.00005  -0.00007  -0.00014  -0.00007  -0.00000  -0.00000  -0.01700  -0.00000 ...
   0.00001   0.00001   0.00000   0.00010  -0.00010   0.00000   0.00015  -0.00015  -0.00000   0.00000  -0.00000  -0.01699 ...
   ...  only 12  components have been written...


 Augmentation waves occupancies Rhoij:
 Atom #  1 - Spin component 1
   1.03181  -0.07643   0.00000   0.00000   0.00000   0.00000   0.00000   0.00000   0.00042  -0.00042   0.00000  -0.00042 ...
  -0.07643   0.18486   0.00000   0.00000   0.00000   0.00000   0.00000   0.00000  -0.00093   0.00093   0.00000   0.00093 ...
   0.00000   0.00000   1.00376   0.00009  -0.00009  -0.03237  -0.00019   0.00019   0.00000   0.00000   0.00000   0.00000 ...
   0.00000   0.00000   0.00009   1.00376   0.00009  -0.00019  -0.03237  -0.00019   0.00000   0.00000   0.00000   0.00000 ...
   0.00000   0.00000  -0.00009   0.00009   1.00376   0.00019  -0.00019  -0.03237   0.00000   0.00000   0.00000   0.00000 ...
   0.00000   0.00000  -0.03237  -0.00019   0.00019   0.17626   0.00024  -0.00024   0.00000   0.00000   0.00000   0.00000 ...
   0.00000   0.00000  -0.00019  -0.03237  -0.00019   0.00024   0.17626   0.00024   0.00000   0.00000   0.00000   0.00000 ...
   0.00000   0.00000   0.00019  -0.00019  -0.03237  -0.00024   0.00024   0.17626   0.00000   0.00000   0.00000   0.00000 ...
   0.00042  -0.00093   0.00000   0.00000   0.00000   0.00000   0.00000   0.00000   0.97315  -0.00022  -0.00139  -0.00022 ...
  -0.00042   0.00093   0.00000   0.00000   0.00000   0.00000   0.00000   0.00000  -0.00022   0.97315  -0.00070   0.00022 ...
   0.00000   0.00000   0.00000   0.00000   0.00000   0.00000   0.00000   0.00000  -0.00139  -0.00070   0.94316  -0.00070 ...
  -0.00042   0.00093   0.00000   0.00000   0.00000   0.00000   0.00000   0.00000  -0.00022   0.00022  -0.00070   0.97315 ...
   ...  only 12  components have been written...
 Atom #  1 - Spin component 2
   1.03203  -0.07933   0.00000   0.00000   0.00000   0.00000   0.00000   0.00000   0.00020  -0.00020   0.00000  -0.00020 ...
  -0.07933   0.19789   0.00000   0.00000   0.00000   0.00000   0.00000   0.00000  -0.00045   0.00045   0.00000   0.00045 ...
   0.00000   0.00000   1.00004  -0.00057   0.00057  -0.02800   0.00162  -0.00162   0.00000   0.00000   0.00000   0.00000 ...
   0.00000   0.00000  -0.00057   1.00004  -0.00057   0.00162  -0.02800   0.00162   0.00000   0.00000   0.00000   0.00000 ...
   0.00000   0.00000   0.00057  -0.00057   1.00004  -0.00162   0.00162  -0.02800   0.00000   0.00000   0.00000   0.00000 ...
   0.00000   0.00000  -0.02800   0.00162  -0.00162   0.18470  -0.00471   0.00471   0.00000   0.00000   0.00000   0.00000 ...
   0.00000   0.00000   0.00162  -0.02800   0.00162  -0.00471   0.18470  -0.00471   0.00000   0.00000   0.00000   0.00000 ...
   0.00000   0.00000  -0.00162   0.00162  -0.02800   0.00471  -0.00471   0.18470   0.00000   0.00000   0.00000   0.00000 ...
   0.00020  -0.00045   0.00000   0.00000   0.00000   0.00000   0.00000   0.00000   0.93898   0.00016   0.00332   0.00016 ...
  -0.00020   0.00045   0.00000   0.00000   0.00000   0.00000   0.00000   0.00000   0.00016   0.93898   0.00166  -0.00016 ...
   0.00000   0.00000   0.00000   0.00000   0.00000   0.00000   0.00000   0.00000   0.00332   0.00166   0.32894   0.00166 ...
  -0.00020   0.00045   0.00000   0.00000   0.00000   0.00000   0.00000   0.00000   0.00016  -0.00016   0.00166   0.93898 ...
   ...  only 12  components have been written...
 Atom #  4 - Spin component 1
   1.04792  -0.05058   0.00067  -0.00067   0.00067  -0.00235   0.00235  -0.00235  -0.00217   0.00217   0.00000   0.00217 ...
  -0.05058   0.01340  -0.00766   0.00766  -0.00766  -0.00145   0.00145  -0.00145  -0.00005   0.00005   0.00000   0.00005 ...
   0.00067  -0.00766   0.96446   0.00085  -0.00085  -0.10060  -0.00072   0.00072  -0.00915   0.00915   0.00305   0.00024 ...
  -0.00067   0.00766   0.00085   0.96446   0.00085  -0.00072  -0.10060  -0.00072   0.00024  -0.00915   0.00611  -0.00915 ...
   0.00067  -0.00766  -0.00085   0.00085   0.96446   0.00072  -0.00072  -0.10060  -0.00915   0.00024   0.00305   0.00915 ...
  -0.00235  -0.00145  -0.10060  -0.00072   0.00072   0.01953  -0.00027   0.00027   0.00094  -0.00094  -0.00064   0.00013 ...
   0.00235   0.00145  -0.00072  -0.10060  -0.00072  -0.00027   0.01953  -0.00027   0.00013   0.00094  -0.00128   0.00094 ...
  -0.00235  -0.00145   0.00072  -0.00072  -0.10060   0.00027  -0.00027   0.01953   0.00094   0.00013  -0.00064  -0.00094 ...
  -0.00217  -0.00005  -0.00915   0.00024  -0.00915   0.00094   0.00013   0.00094   0.01012  -0.00013   0.00084  -0.00013 ...
   0.00217   0.00005   0.00915  -0.00915   0.00024  -0.00094   0.00094   0.00013  -0.00013   0.01012   0.00042   0.00013 ...
   0.00000   0.00000   0.00305   0.00611   0.00305  -0.00064  -0.00128  -0.00064   0.00084   0.00042   0.00798   0.00042 ...
   0.00217   0.00005   0.00024  -0.00915   0.00915   0.00013   0.00094  -0.00094  -0.00013   0.00013   0.00042   0.01012 ...
   ...  only 12  components have been written...
 Atom #  4 - Spin component 2
   1.04792  -0.05058  -0.00067   0.00067  -0.00067   0.00235  -0.00235   0.00235  -0.00217   0.00217   0.00000   0.00217 ...
  -0.05058   0.01340   0.00766  -0.00766   0.00766   0.00145  -0.00145   0.00145  -0.00005   0.00005   0.00000   0.00005 ...
  -0.00067   0.00766   0.96446   0.00085  -0.00085  -0.10060  -0.00072   0.00072   0.00915  -0.00915  -0.00305  -0.00024 ...
   0.00067  -0.00766   0.00085   0.96446   0.00085  -0.00072  -0.10060  -0.00072  -0.00024   0.00915  -0.00611   0.00915 ...
  -0.00067   0.00766  -0.00085   0.00085   0.96446   0.00072  -0.00072  -0.10060   0.00915  -0.00024  -0.00305  -0.00915 ...
   0.00235   0.00145  -0.10060  -0.00072   0.00072   0.01953  -0.00027   0.00027  -0.00094   0.00094   0.00064  -0.00013 ...
  -0.00235  -0.00145  -0.00072  -0.10060  -0.00072  -0.00027   0.01953  -0.00027  -0.00013  -0.00094   0.00128  -0.00094 ...
   0.00235   0.00145   0.00072  -0.00072  -0.10060   0.00027  -0.00027   0.01953  -0.00094  -0.00013   0.00064   0.00094 ...
  -0.00217  -0.00005   0.00915  -0.00024   0.00915  -0.00094  -0.00013  -0.00094   0.01012  -0.00013   0.00084  -0.00013 ...
   0.00217   0.00005  -0.00915   0.00915  -0.00024   0.00094  -0.00094  -0.00013  -0.00013   0.01012   0.00042   0.00013 ...
   0.00000   0.00000  -0.00305  -0.00611  -0.00305   0.00064   0.00128   0.00064   0.00084   0.00042   0.00798   0.00042 ...
   0.00217   0.00005  -0.00024   0.00915  -0.00915  -0.00013  -0.00094   0.00094  -0.00013   0.00013   0.00042   0.01012 ...
   ...  only 12  components have been written...


================================================================================

 ----iterations are completed or convergence reached----


 outwf: write wavefunction to file tdftu_1o_WFK, with accesswff -1
 leave_test : synchronization done...
 outwf with iomode: -1, cpu:     0.02, wall:     0.02

 === Gap info ===
  >>>> For spin  1
   Minimum optical gap =   0.8961 [eV], located at k-point      :  -0.2500 -0.2500  0.2500
   Fundamental gap     =   0.8083 [eV], Top of valence bands at :  -0.2500  0.2500  0.2500
                                        Bottom of conduction at :  -0.2500 -0.2500  0.2500

 Cartesian components of stress tensor (hartree/bohr^3)
  sigma(1 1)=  1.09482007E-03  sigma(3 2)=  3.85455931E-05
  sigma(2 2)=  1.09482007E-03  sigma(3 1)=  3.85455931E-05
  sigma(3 3)=  1.09482007E-03  sigma(2 1)= -3.85455931E-05

-Cartesian components of stress tensor (GPa)         [Pressure= -3.2211E+01 GPa]
- sigma(1 1)=  3.22107130E+01  sigma(3 2)=  1.13405031E+00
- sigma(2 2)=  3.22107130E+01  sigma(3 1)=  1.13405031E+00
- sigma(3 3)=  3.22107130E+01  sigma(2 1)= -1.13405031E+00

== END DATASET(S) ==============================================================
================================================================================
  
 -outvars: echo values of variables after computation  --------
 
 These variables are accessible in NetCDF format (tdftu_1o_OUT.nc)

            acell      7.9200000000E+00  7.9200000000E+00  7.9200000000E+00 Bohr
              amu      5.86900000E+01  1.59994000E+01
      chksymbreak           0
             ecut      1.50000000E+01 Hartree
           etotal     -3.7304737188E+02
            fcart     -0.0000000000E+00 -0.0000000000E+00 -0.0000000000E+00
                      -0.0000000000E+00 -0.0000000000E+00 -0.0000000000E+00
                      -0.0000000000E+00 -0.0000000000E+00 -0.0000000000E+00
                      -0.0000000000E+00 -0.0000000000E+00 -0.0000000000E+00
              ixc           7
              kpt      2.50000000E-01  2.50000000E-01  2.50000000E-01
                      -2.50000000E-01  2.50000000E-01  2.50000000E-01
                      -2.50000000E-01 -2.50000000E-01  2.50000000E-01
         kptrlatt        2    0    0      0    2    0      0    0    2
          kptrlen      1.12005714E+01
P           mkmem           3
            natom           4
            nband          40
            ngfft          20      20      40
          ngfftdg          30      30      60
             nkpt           3
           nspden           2
            nstep          50
             nsym          24
           ntypat           2
              occ      2.000000  2.000000  2.000000  2.000000  2.000000  2.000000
                       2.000000  2.000000  2.000000  2.000000  2.000000  2.000000
                       2.000000  2.000000  2.000000  2.000000  2.000000  2.000000
                       2.000000  1.999990  1.999943  1.994089  1.963135  1.941421
                       0.162463  0.000422  0.000000  0.000000  0.000000  0.000000
                       0.000000  0.000000  0.000000  0.000000  0.000000  0.000000
                       0.000000  0.000000  0.000000  0.000000
                       2.000000  2.000000  2.000000  2.000000  2.000000  2.000000
                       2.000000  2.000000  2.000000  2.000000  2.000000  2.000000
                       2.000000  2.000000  2.000000  2.000000  2.000000  2.000000
                       2.000000  1.999929  1.999193  1.981008  1.959881  1.885615
                       0.094717  0.000290  0.000000  0.000000  0.000000  0.000000
                       0.000000  0.000000  0.000000  0.000000  0.000000  0.000000
                       0.000000  0.000000  0.000000  0.000000
                       2.000000  2.000000  2.000000  2.000000  2.000000  2.000000
                       2.000000  2.000000  2.000000  2.000000  2.000000  2.000000
                       2.000000  2.000000  2.000000  2.000000  2.000000  2.000000
                       2.000000  1.999994  1.999745  1.994589  1.940719  1.940295
                       0.221824  0.000104  0.000000  0.000000  0.000000  0.000000
                       0.000000  0.000000  0.000000  0.000000  0.000000  0.000000
                       0.000000  0.000000  0.000000  0.000000
           occopt           7
        pawecutdg      3.00000000E+01 Hartree
        prtdensph           1
            rprim      0.0000000000E+00  5.0000000000E-01  5.0000000000E-01
                       5.0000000000E-01  0.0000000000E+00  5.0000000000E-01
                       1.0000000000E+00  1.0000000000E+00  0.0000000000E+00
           shiftk      5.00000000E-01  5.00000000E-01  5.00000000E-01
          spgroup         166
           spinat      0.0000000000E+00  0.0000000000E+00  1.0000000000E+00
                       0.0000000000E+00  0.0000000000E+00 -1.0000000000E+00
                       0.0000000000E+00  0.0000000000E+00  0.0000000000E+00
                       0.0000000000E+00  0.0000000000E+00  0.0000000000E+00
           strten      1.0948200678E-03  1.0948200678E-03  1.0948200678E-03
                       3.8545593103E-05  3.8545593103E-05 -3.8545593103E-05
           symafm        1   -1    1   -1    1   -1    1   -1    1   -1
                         1   -1    1   -1    1   -1    1   -1    1   -1
                         1   -1    1   -1
           symrel      1  0  0   0  1  0   0  0  1       1  0  0   0  1  0   0  0  1
                      -1  0  0   0 -1  0   0  0 -1      -1  0  0   0 -1  0   0  0 -1
                       0  1  0   1  0  0   0  0  1       0  1  0   1  0  0   0  0  1
                       0 -1  0  -1  0  0   0  0 -1       0 -1  0  -1  0  0   0  0 -1
                       0 -1  0   1 -1  0   0 -2  1       0 -1  0   1 -1  0   0 -2  1
                       0  1  0  -1  1  0   0  2 -1       0  1  0  -1  1  0   0  2 -1
                       1 -1  0   0 -1  0   0 -2  1       1 -1  0   0 -1  0   0 -2  1
                      -1  1  0   0  1  0   0  2 -1      -1  1  0   0  1  0   0  2 -1
                      -1  1  0  -1  0  0  -2  0  1      -1  1  0  -1  0  0  -2  0  1
                       1 -1  0   1  0  0   2  0 -1       1 -1  0   1  0  0   2  0 -1
                      -1  0  0  -1  1  0  -2  0  1      -1  0  0  -1  1  0  -2  0  1
                       1  0  0   1 -1  0   2  0 -1       1  0  0   1 -1  0   2  0 -1
            tnons      0.0000000  0.0000000  0.0000000     0.0000000  0.0000000  0.5000000
                       0.0000000  0.0000000  0.0000000     0.0000000  0.0000000  0.5000000
                       0.0000000  0.0000000  0.0000000     0.0000000  0.0000000  0.5000000
                       0.0000000  0.0000000  0.0000000     0.0000000  0.0000000  0.5000000
                       0.0000000  0.0000000  0.0000000     0.0000000  0.0000000  0.5000000
                       0.0000000  0.0000000  0.0000000     0.0000000  0.0000000  0.5000000
                       0.0000000  0.0000000  0.0000000     0.0000000  0.0000000  0.5000000
                       0.0000000  0.0000000  0.0000000     0.0000000  0.0000000  0.5000000
                       0.0000000  0.0000000  0.0000000     0.0000000  0.0000000  0.5000000
                       0.0000000  0.0000000  0.0000000     0.0000000  0.0000000  0.5000000
                       0.0000000  0.0000000  0.0000000     0.0000000  0.0000000  0.5000000
                       0.0000000  0.0000000  0.0000000     0.0000000  0.0000000  0.5000000
           toldfe      1.00000000E-08 Hartree
           tsmear      1.50000000E-02 Hartree
            typat      1  1  2  2
           useylm           1
              wtk        0.25000    0.50000    0.25000
           xangst      0.0000000000E+00  0.0000000000E+00  0.0000000000E+00
                       2.0955417460E+00  2.0955417460E+00  0.0000000000E+00
                       2.0955417460E+00  2.0955417460E+00  2.0955417460E+00
                       4.1910834920E+00  4.1910834920E+00  2.0955417460E+00
            xcart      0.0000000000E+00  0.0000000000E+00  0.0000000000E+00
                       3.9600000000E+00  3.9600000000E+00  0.0000000000E+00
                       3.9600000000E+00  3.9600000000E+00  3.9600000000E+00
                       7.9200000000E+00  7.9200000000E+00  3.9600000000E+00
             xred      0.0000000000E+00  0.0000000000E+00  0.0000000000E+00
                       0.0000000000E+00  0.0000000000E+00  5.0000000000E-01
                       5.0000000000E-01  5.0000000000E-01  2.5000000000E-01
                       5.0000000000E-01  5.0000000000E-01  7.5000000000E-01
            znucl       28.00000    8.00000

================================================================================
  

================================================================================

 Suggested references for the acknowledgment of ABINIT usage.

 The users of ABINIT have little formal obligations with respect to the ABINIT group
 (those specified in the GNU General Public License, http://www.gnu.org/copyleft/gpl.txt).
 However, it is common practice in the scientific literature,
 to acknowledge the efforts of people that have made the research possible.
 In this spirit, please find below suggested citations of work written by ABINIT developers,
 corresponding to implementations inside of ABINIT that you have used in the present run.
 Note also that it will be of great value to readers of publications presenting these results,
 to read papers enabling them to understand the theoretical formalism and details
 of the ABINIT implementation.
 For information on why they are suggested, see also http://www.abinit.org/about/?text=acknowledgments.

 [1] Implementation of the Projector Augmented-Wave Method in the ABINIT code.
 M. Torrent, F. Jollet, F. Bottin, G. Zerah, and X. Gonze Comput. Mat. Science 42, 337, (2008).
 Comment : PAW calculations. Strong suggestion to cite this paper.

 [2] ABINIT : First-principles approach of materials and nanosystem properties.
 X. Gonze, B. Amadon, P.-M. Anglade, J.-M. Beuken, F. Bottin, P. Boulanger, F. Bruneval,
 D. Caliste, R. Caracas, M. Cote, T. Deutsch, L. Genovese, Ph. Ghosez, M. Giantomassi
 S. Goedecker, D.R. Hamann, P. Hermet, F. Jollet, G. Jomard, S. Leroux, M. Mancini, S. Mazevet,
 M.J.T. Oliveira, G. Onida, Y. Pouillon, T. Rangel, G.-M. Rignanese, D. Sangalli, R. Shaltaf,
 M. Torrent, M.J. Verstraete, G. Zerah, J.W. Zwanziger
 Computer Phys. Comm. 180, 2582-2615 (2009).
 Comment : the third generic paper describing the ABINIT project.
 Note that a version of this paper, that is not formatted for Computer Phys. Comm. 
 is available at http://www.abinit.org/about/ABINIT_CPC_v10.pdf .
 The licence allows the authors to put it on the Web.

 [3] A brief introduction to the ABINIT software package.
 X. Gonze, G.-M. Rignanese, M. Verstraete, J.-M. Beuken, Y. Pouillon, R. Caracas, F. Jollet,
 M. Torrent, G. Zerah, M. Mikami, Ph. Ghosez, M. Veithen, J.-Y. Raty, V. Olevano, F. Bruneval,
 L. Reining, R. Godby, G. Onida, D.R. Hamann, and D.C. Allan.
 Z. Kristallogr. 220, 558-562 (2005).
 Comment : the second generic paper describing the ABINIT project. Note that this paper
 should be cited especially if you are using the GW part of ABINIT, as several authors
 of this part are not in the list of authors of the first or third paper.
 The .pdf of the latter paper is available at http://www.abinit.org/about/zfk_0505-06_558-562.pdf.
 Note that it should not redistributed (Copyright by Oldenburg Wissenshaftverlag,
 the licence allows the authors to put it on the Web).


 And optionally :

 [4] First-principles computation of material properties : the ABINIT software project. 
 X. Gonze, J.-M. Beuken, R. Caracas, F. Detraux, M. Fuchs, G.-M. Rignanese, L. Sindic,
 M. Verstraete, G. Zerah, F. Jollet, M. Torrent, A. Roy, M. Mikami, Ph. Ghosez, J.-Y. Raty, D.C. Allan.
 Computational Materials Science 25, 478-492 (2002). http://dx.doi.org/10.1016/S0927-0256(02)00325-7
 Comment : the original paper describing the ABINIT project.

 [5] Fast radix 2, 3, 4 and 5 kernels for Fast Fourier Transformations
 on computers with overlapping multiply-add instructions.
 S. Goedecker, SIAM J. on Scientific Computing 18, 1605 (1997).
 Proc.   0 individual time (sec): cpu=         23.5  wall=         25.2

 Calculation completed.
.Delivered    7 WARNINGs and   4 COMMENTs to log file.
