
.Version 7.4.3 of ABINIT 
.(MPI version, prepared for a i686_cygwin_gnu4.7 computer) 

.Copyright (C) 1998-2013 ABINIT group . 
 ABINIT comes with ABSOLUTELY NO WARRANTY.
 It is free software, and you are welcome to redistribute it
 under certain conditions (GNU General Public License,
 see ~abinit/COPYING or http://www.gnu.org/copyleft/gpl.txt).

 ABINIT is a project of the Universite Catholique de Louvain,
 Corning Inc. and other collaborators, see ~abinit/doc/developers/contributors.txt .
 Please read ~abinit/doc/users/acknowledgments.html for suggested
 acknowledgments of the ABINIT effort.
 For more information, see http://www.abinit.org .

.Starting date : Mon  4 Jun 2018.
- ( at 13h24 )
  

 herald :  WARNING -
  The starting date is more than 3 years after the initial release
  of this version of ABINIT, namely Aug 2013.
  This version of ABINIT is not supported anymore.
  Action : please, switch to a more recent version of ABINIT.
- input  file    -> tdftu_1.in
- output file    -> tdftu_1.out
- root for input  files -> tdftu_1i
- root for output files -> tdftu_1o


 Magnetic group, Shubnikov type IV
 Fedorov space group R-3 m (#166)
 Magnetic Bravais lattice hR_I (rhombohedral, centered magnetic, #31)
================================================================================
 Values of the parameters that define the memory need of the present run
   intxc =         0  ionmov =         0    iscf =        17 xclevel =         1
  lmnmax =        18   lnmax =         6   mband =        40  mffmem =         1
P  mgfft =        40   mkmem =         3 mpssoang=         3     mpw =       691
  mqgrid =      3001   natom =         4    nfft =     16000    nkpt =         3
  nloalg =         4  nspden =         2 nspinor =         1  nsppol =         1
    nsym =        24  n1xccc =         1  ntypat =         2  occopt =         7
 PAW method is used; the additional fine FFT grid is defined by:
   mgfftf=        60    nfftf =     54000
================================================================================
P This job should need less than                      25.070 Mbytes of memory.
  Rough estimation (10% accuracy) of disk space for files :
_ WF disk file :      1.267 Mbytes ; DEN or POT disk file :      0.414 Mbytes.
================================================================================

--------------------------------------------------------------------------------
------------- Echo of variables that govern the present computation ------------
--------------------------------------------------------------------------------
-
- outvars: echo of selected default values                                      
-   accesswff0 =  0 , fftalg0 =112 , wfoptalg0 = 10
-
- outvars: echo of global parameters not present in the input file              
-  max_nthreads =    0
-
 -outvars: echo values of preprocessed input variables --------
            acell      7.9200000000E+00  7.9200000000E+00  7.9200000000E+00 Bohr
              amu      5.86900000E+01  1.59994000E+01
      chksymbreak           0
             ecut      1.50000000E+01 Hartree
              ixc           7
              kpt      2.50000000E-01  2.50000000E-01  2.50000000E-01
                      -2.50000000E-01  2.50000000E-01  2.50000000E-01
                      -2.50000000E-01 -2.50000000E-01  2.50000000E-01
         kptrlatt        2    0    0      0    2    0      0    0    2
          kptrlen      1.12005714E+01
P           mkmem           3
            natom           4
            nband          40
            ngfft          20      20      40
          ngfftdg          30      30      60
             nkpt           3
           nspden           2
            nstep          50
             nsym          24
           ntypat           2
              occ      2.000000  2.000000  2.000000  2.000000  2.000000  2.000000
                       2.000000  2.000000  2.000000  2.000000  2.000000  2.000000
                       2.000000  2.000000  2.000000  2.000000  2.000000  2.000000
                       2.000000  2.000000  2.000000  2.000000  2.000000  2.000000
                       0.000000  0.000000  0.000000  0.000000  0.000000  0.000000
                       0.000000  0.000000  0.000000  0.000000  0.000000  0.000000
                       0.000000  0.000000  0.000000  0.000000
                       2.000000  2.000000  2.000000  2.000000  2.000000  2.000000
                       2.000000  2.000000  2.000000  2.000000  2.000000  2.000000
                       2.000000  2.000000  2.000000  2.000000  2.000000  2.000000
                       2.000000  2.000000  2.000000  2.000000  2.000000  2.000000
                       0.000000  0.000000  0.000000  0.000000  0.000000  0.000000
                       0.000000  0.000000  0.000000  0.000000  0.000000  0.000000
                       0.000000  0.000000  0.000000  0.000000
                       2.000000  2.000000  2.000000  2.000000  2.000000  2.000000
                       2.000000  2.000000  2.000000  2.000000  2.000000  2.000000
                       2.000000  2.000000  2.000000  2.000000  2.000000  2.000000
                       2.000000  2.000000  2.000000  2.000000  2.000000  2.000000
                       0.000000  0.000000  0.000000  0.000000  0.000000  0.000000
                       0.000000  0.000000  0.000000  0.000000  0.000000  0.000000
                       0.000000  0.000000  0.000000  0.000000
           occopt           7
        pawecutdg      3.00000000E+01 Hartree
        prtdensph           1
            rprim      0.0000000000E+00  5.0000000000E-01  5.0000000000E-01
                       5.0000000000E-01  0.0000000000E+00  5.0000000000E-01
                       1.0000000000E+00  1.0000000000E+00  0.0000000000E+00
           shiftk      5.00000000E-01  5.00000000E-01  5.00000000E-01
          spgroup         166
           spinat      0.0000000000E+00  0.0000000000E+00  1.0000000000E+00
                       0.0000000000E+00  0.0000000000E+00 -1.0000000000E+00
                       0.0000000000E+00  0.0000000000E+00  0.0000000000E+00
                       0.0000000000E+00  0.0000000000E+00  0.0000000000E+00
           symafm        1   -1    1   -1    1   -1    1   -1    1   -1
                         1   -1    1   -1    1   -1    1   -1    1   -1
                         1   -1    1   -1
           symrel      1  0  0   0  1  0   0  0  1       1  0  0   0  1  0   0  0  1
                      -1  0  0   0 -1  0   0  0 -1      -1  0  0   0 -1  0   0  0 -1
                       0  1  0   1  0  0   0  0  1       0  1  0   1  0  0   0  0  1
                       0 -1  0  -1  0  0   0  0 -1       0 -1  0  -1  0  0   0  0 -1
                       0 -1  0   1 -1  0   0 -2  1       0 -1  0   1 -1  0   0 -2  1
                       0  1  0  -1  1  0   0  2 -1       0  1  0  -1  1  0   0  2 -1
                       1 -1  0   0 -1  0   0 -2  1       1 -1  0   0 -1  0   0 -2  1
                      -1  1  0   0  1  0   0  2 -1      -1  1  0   0  1  0   0  2 -1
                      -1  1  0  -1  0  0  -2  0  1      -1  1  0  -1  0  0  -2  0  1
                       1 -1  0   1  0  0   2  0 -1       1 -1  0   1  0  0   2  0 -1
                      -1  0  0  -1  1  0  -2  0  1      -1  0  0  -1  1  0  -2  0  1
                       1  0  0   1 -1  0   2  0 -1       1  0  0   1 -1  0   2  0 -1
            tnons      0.0000000  0.0000000  0.0000000     0.0000000  0.0000000  0.5000000
                       0.0000000  0.0000000  0.0000000     0.0000000  0.0000000  0.5000000
                       0.0000000  0.0000000  0.0000000     0.0000000  0.0000000  0.5000000
                       0.0000000  0.0000000  0.0000000     0.0000000  0.0000000  0.5000000
                       0.0000000  0.0000000  0.0000000     0.0000000  0.0000000  0.5000000
                       0.0000000  0.0000000  0.0000000     0.0000000  0.0000000  0.5000000
                       0.0000000  0.0000000  0.0000000     0.0000000  0.0000000  0.5000000
                       0.0000000  0.0000000  0.0000000     0.0000000  0.0000000  0.5000000
                       0.0000000  0.0000000  0.0000000     0.0000000  0.0000000  0.5000000
                       0.0000000  0.0000000  0.0000000     0.0000000  0.0000000  0.5000000
                       0.0000000  0.0000000  0.0000000     0.0000000  0.0000000  0.5000000
                       0.0000000  0.0000000  0.0000000     0.0000000  0.0000000  0.5000000
           toldfe      1.00000000E-08 Hartree
           tsmear      1.50000000E-02 Hartree
            typat      1  1  2  2
           useylm           1
              wtk        0.25000    0.50000    0.25000
           xangst      0.0000000000E+00  0.0000000000E+00  0.0000000000E+00
                       2.0955417460E+00  2.0955417460E+00  0.0000000000E+00
                       2.0955417460E+00  2.0955417460E+00  2.0955417460E+00
                       4.1910834920E+00  4.1910834920E+00  2.0955417460E+00
            xcart      0.0000000000E+00  0.0000000000E+00  0.0000000000E+00
                       3.9600000000E+00  3.9600000000E+00  0.0000000000E+00
                       3.9600000000E+00  3.9600000000E+00  3.9600000000E+00
                       7.9200000000E+00  7.9200000000E+00  3.9600000000E+00
             xred      0.0000000000E+00  0.0000000000E+00  0.0000000000E+00
                       0.0000000000E+00  0.0000000000E+00  5.0000000000E-01
                       5.0000000000E-01  5.0000000000E-01  2.5000000000E-01
                       5.0000000000E-01  5.0000000000E-01  7.5000000000E-01
            znucl       28.00000    8.00000

================================================================================

 chkinp: Checking input parameters for consistency.

================================================================================
== DATASET  1 ==================================================================
-   nproc =    1

 Exchange-correlation functional for the present dataset will be:
  LDA: Perdew-Wang 92 LSD fit to Ceperley-Alder data - ixc=7
 Citation for XC functional:
  J.P.Perdew and Y.Wang, PRB 45, 13244 (1992)

 Real(R)+Recip(G) space primitive vectors, cartesian coordinates (Bohr,Bohr^-1):
 R(1)=  0.0000000  3.9600000  3.9600000  G(1)= -0.1262626  0.1262626  0.1262626
 R(2)=  3.9600000  0.0000000  3.9600000  G(2)=  0.1262626 -0.1262626  0.1262626
 R(3)=  7.9200000  7.9200000  0.0000000  G(3)=  0.0631313  0.0631313 -0.0631313
 Unit cell volume ucvol=  2.4839654E+02 bohr^3
 Angles (23,13,12)=  6.00000000E+01  6.00000000E+01  6.00000000E+01 degrees

 Coarse grid specifications (used for wave-functions):

 getcut: wavevector=  0.0000  0.0000  0.0000  ngfft=  20  20  40
         ecut(hartree)=     15.000   => boxcut(ratio)=   2.04837

 Fine grid specifications (used for densities):

 getcut: wavevector=  0.0000  0.0000  0.0000  ngfft=  30  30  60
         ecut(hartree)=     30.000   => boxcut(ratio)=   2.17444

--- Pseudopotential description ------------------------------------------------
- pspini: atom type   1  psp file is 28ni.paw
- pspatm: opening atomic psp file    28ni.paw
- Paw atomic data for element Ni - Generated by AtomPAW (N. Holzwarth) + AtomPAW2Abinit v3.0.5
- 28.00000  18.00000  20061204                znucl, zion, pspdat
    7    7    2    0       350   0.00000      pspcod,pspxc,lmax,lloc,mmax,r2well
 Pseudopotential format is: paw3
 basis_size (lnmax)=  5 (lmn_size= 13), orbitals=   0   0   1   1   2
 Spheres core radius: rc_sph= 2.30000000
 3 radial meshes are used:
  - mesh 1: r(i)=AA*exp(BB*(i-2)), size= 350 , AA= 0.11804E-04 BB= 0.35000E-01
  - mesh 2: r(i)=step*(i-1), size= 921 , step= 0.25000E-02
  - mesh 3: r(i)=AA*exp(BB*(i-2)), size= 391 , AA= 0.11804E-04 BB= 0.35000E-01
 Shapefunction is SIN type: shapef(r)=[sin(pi*r/rshp)/(pi*r/rshp)]**2
 Radius for shape functions = sphere core radius
 Radial grid used for partial waves is grid 1
 Radial grid used for projectors is grid  2
 Radial grid used for (t)core density is grid 1
 Radial grid used for Vloc is grid 3

 psp7calc: WARNING -
  Atomic data could produce inaccurate results:
    Wavefunctions and pseudo-wavefunctions should
    be given on a radial mesh larger than the PAW
    spheres (at least 2 additional points) !
  Action: check your pseudopotential file.
 pspatm: atomic psp has been read  and splines computed

- pspini: atom type   2  psp file is 8o.2.paw
- pspatm: opening atomic psp file    8o.2.paw
- Paw atomic data extracted from US-psp (D.Vanderbilt): Oxygen
-  8.00000   6.00000  20050722                znucl, zion, pspdat
    7   11    2    0       489   0.00000      pspcod,pspxc,lmax,lloc,mmax,r2well
 Pseudopotential format is: paw3
 basis_size (lnmax)=  6 (lmn_size= 18), orbitals=   0   0   1   1   2   2
 Spheres core radius: rc_sph= 1.21105161
 4 radial meshes are used:
  - mesh 1: r(i)=AA*[exp(BB*(i-1))-1], size= 489 , AA= 0.30984E-03 BB= 0.16949E-01
  - mesh 2: r(i)=AA*[exp(BB*(i-1))-1], size= 548 , AA= 0.30984E-03 BB= 0.16949E-01
  - mesh 3: r(i)=AA*[exp(BB*(i-1))-1], size= 509 , AA= 0.30984E-03 BB= 0.16949E-01
  - mesh 4: r(i)=AA*[exp(BB*(i-1))-1], size= 613 , AA= 0.30984E-03 BB= 0.16949E-01
 Shapefunction is SIN type: shapef(r)=[sin(pi*r/rshp)/(pi*r/rshp)]**2
 Radius for shape functions = sphere core radius
 Radial grid used for partial waves is grid 1
 Radial grid used for projectors is grid  2
 Radial grid used for (t)core density is grid 3
 Radial grid used for Vloc is grid 4

 psp7calc: WARNING -
  Atomic data could produce inaccurate results:
    Wavefunctions and pseudo-wavefunctions should
    be given on a radial mesh larger than the PAW
    spheres (at least 2 additional points) !
  Action: check your pseudopotential file.
 pspatm: atomic psp has been read  and splines computed

   5.32753584E+03                                ecore*ucvol(ha*bohr**3)
--------------------------------------------------------------------------------

P newkpt: treating     40 bands with npw=     685 for ikpt=   1 by node    0
P newkpt: treating     40 bands with npw=     691 for ikpt=   2 by node    0
P newkpt: treating     40 bands with npw=     678 for ikpt=   3 by node    0

_setup2: Arith. and geom. avg. npw (full set) are     686.250     686.229

================================================================================

     iter   Etot(hartree)      deltaE(h)  residm     nres2
 ETOT  1  -370.10327042238    -3.701E+02 1.018E+01 2.123E+02
 ETOT  2  -373.30476989195    -3.201E+00 4.436E-02 1.050E+02
 ETOT  3  -373.15472142392     1.500E-01 2.460E-02 6.607E+01
 ETOT  4  -373.16663692115    -1.192E-02 4.600E-02 3.184E+01
 ETOT  5  -373.05690638950     1.097E-01 1.791E-02 6.448E+00
 ETOT  6  -373.04569754291     1.121E-02 2.888E-03 9.198E-01
 ETOT  7  -373.04555751722     1.400E-04 3.168E-05 9.996E-01
 ETOT  8  -373.05168612396    -6.129E-03 1.630E-04 2.737E+00
 ETOT  9  -373.04817263906     3.513E-03 4.761E-04 6.370E-01
 ETOT 10  -373.04723512572     9.375E-04 1.293E-04 6.916E-02
 ETOT 11  -373.04729072376    -5.560E-05 1.268E-05 2.216E-02
 ETOT 12  -373.04740758645    -1.169E-04 1.478E-05 2.409E-02
 ETOT 13  -373.04737063435     3.695E-05 1.211E-05 4.086E-03
 ETOT 14  -373.04737086163    -2.273E-07 2.560E-06 2.661E-04
 ETOT 15  -373.04737137464    -5.130E-07 5.073E-06 7.765E-05
 ETOT 16  -373.04737191229    -5.376E-07 1.460E-06 2.154E-05
 ETOT 17  -373.04737188021     3.208E-08 3.278E-06 9.791E-07
 ETOT 18  -373.04737187961     5.993E-10 9.532E-07 6.914E-08
 ETOT 19  -373.04737187948     1.362E-10 2.228E-06 9.251E-09

 At SCF step   19, etot is converged : 
  for the second time, diff in etot=  1.362E-10 < toldfe=  1.000E-08

 Cartesian components of stress tensor (hartree/bohr^3)
  sigma(1 1)=  1.09482007E-03  sigma(3 2)=  3.85455931E-05
  sigma(2 2)=  1.09482007E-03  sigma(3 1)=  3.85455931E-05
  sigma(3 3)=  1.09482007E-03  sigma(2 1)= -3.85455931E-05


 Integrated total density in atomic spheres:
 -------------------------------------------
 Atom  Sphere radius  Integrated_up_density  Integrated_dn_density  Total(up+dn)   Diff(up-dn)
    1        2.30000             9.05536980             7.85243738   16.90780718    1.20293241
    2        2.30000             7.85243738             9.05536980   16.90780718   -1.20293241
    3        1.21105             1.82716080             1.82716080    3.65432159    0.00000000
    4        1.21105             1.82716080             1.82716080    3.65432159    0.00000000
 Note: Diff(up-dn) can be considered as a rough approximation of a local magnetic moment.



 PAW TEST:
 ==== Compensation charge inside spheres ============
 The following values must be close to each other ...
 Compensation charge over spherical meshes =     22.162466401871754
 Compensation charge over fine fft grid    =     22.162597780419318

 ==== Results concerning PAW augmentation regions ====

 Total pseudopotential strength Dij (hartree):
 Atom #  1 - Spin component 1
  -2.82987  -0.93988   0.00000   0.00000   0.00000   0.00000   0.00000   0.00000  -0.00019   0.00019   0.00000   0.00019 ...
  -0.93988  -0.56608   0.00000   0.00000   0.00000   0.00000   0.00000   0.00000  -0.00005   0.00005   0.00000   0.00005 ...
   0.00000   0.00000  -2.23995   0.00017  -0.00017  -0.50092   0.00004  -0.00004   0.00000   0.00000   0.00000   0.00000 ...
   0.00000   0.00000   0.00017  -2.23995   0.00017   0.00004  -0.50092   0.00004   0.00000   0.00000   0.00000   0.00000 ...
   0.00000   0.00000  -0.00017   0.00017  -2.23995  -0.00004   0.00004  -0.50092   0.00000   0.00000   0.00000   0.00000 ...
   0.00000   0.00000  -0.50092   0.00004  -0.00004  -0.31947   0.00001  -0.00001   0.00000   0.00000   0.00000   0.00000 ...
   0.00000   0.00000   0.00004  -0.50092   0.00004   0.00001  -0.31947   0.00001   0.00000   0.00000   0.00000   0.00000 ...
   0.00000   0.00000  -0.00004   0.00004  -0.50092  -0.00001   0.00001  -0.31947   0.00000   0.00000   0.00000   0.00000 ...
  -0.00019  -0.00005   0.00000   0.00000   0.00000   0.00000   0.00000   0.00000  -0.31596   0.00004   0.00016   0.00004 ...
   0.00019   0.00005   0.00000   0.00000   0.00000   0.00000   0.00000   0.00000   0.00004  -0.31596   0.00008  -0.00004 ...
   0.00000   0.00000   0.00000   0.00000   0.00000   0.00000   0.00000   0.00000   0.00016   0.00008  -0.33614   0.00008 ...
   0.00019   0.00005   0.00000   0.00000   0.00000   0.00000   0.00000   0.00000   0.00004  -0.00004   0.00008  -0.31596 ...
   ...  only 12  components have been written...
 Atom #  1 - Spin component 2
  -2.80232  -0.92844   0.00000   0.00000   0.00000   0.00000   0.00000   0.00000   0.00001  -0.00001   0.00000  -0.00001 ...
  -0.92844  -0.56579   0.00000   0.00000   0.00000   0.00000   0.00000   0.00000  -0.00001   0.00001   0.00000   0.00001 ...
   0.00000   0.00000  -2.20294  -0.00000   0.00000  -0.49042   0.00000  -0.00000   0.00000   0.00000   0.00000   0.00000 ...
   0.00000   0.00000  -0.00000  -2.20294  -0.00000   0.00000  -0.49042   0.00000   0.00000   0.00000   0.00000   0.00000 ...
   0.00000   0.00000   0.00000  -0.00000  -2.20294  -0.00000   0.00000  -0.49042   0.00000   0.00000   0.00000   0.00000 ...
   0.00000   0.00000  -0.49042   0.00000  -0.00000  -0.31771   0.00001  -0.00001   0.00000   0.00000   0.00000   0.00000 ...
   0.00000   0.00000   0.00000  -0.49042   0.00000   0.00001  -0.31771   0.00001   0.00000   0.00000   0.00000   0.00000 ...
   0.00000   0.00000  -0.00000   0.00000  -0.49042  -0.00001   0.00001  -0.31771   0.00000   0.00000   0.00000   0.00000 ...
   0.00001  -0.00001   0.00000   0.00000   0.00000   0.00000   0.00000   0.00000  -0.29305   0.00003  -0.00003   0.00003 ...
  -0.00001   0.00001   0.00000   0.00000   0.00000   0.00000   0.00000   0.00000   0.00003  -0.29305  -0.00002  -0.00003 ...
   0.00000   0.00000   0.00000   0.00000   0.00000   0.00000   0.00000   0.00000  -0.00003  -0.00002  -0.28746  -0.00002 ...
  -0.00001   0.00001   0.00000   0.00000   0.00000   0.00000   0.00000   0.00000   0.00003  -0.00003  -0.00002  -0.29305 ...
   ...  only 12  components have been written...
 Atom #  4 - Spin component 1
   0.64641   1.08806   0.00022  -0.00022   0.00022   0.00034  -0.00034   0.00034  -0.00001   0.00001   0.00000   0.00001 ...
   1.08806   1.82847   0.00036  -0.00036   0.00036   0.00056  -0.00056   0.00056  -0.00001   0.00001   0.00000   0.00001 ...
   0.00022   0.00036  -0.29817  -0.00003   0.00003  -0.34005  -0.00004   0.00004  -0.00010   0.00010   0.00005  -0.00000 ...
  -0.00022  -0.00036  -0.00003  -0.29817  -0.00003  -0.00004  -0.34005  -0.00004  -0.00000  -0.00010   0.00009  -0.00010 ...
   0.00022   0.00036   0.00003  -0.00003  -0.29817   0.00004  -0.00004  -0.34005  -0.00010  -0.00000   0.00005   0.00010 ...
   0.00034   0.00056  -0.34005  -0.00004   0.00004  -0.35428  -0.00005   0.00005  -0.00015   0.00015   0.00007  -0.00000 ...
  -0.00034  -0.00056  -0.00004  -0.34005  -0.00004  -0.00005  -0.35428  -0.00005  -0.00000  -0.00015   0.00014  -0.00015 ...
   0.00034   0.00056   0.00004  -0.00004  -0.34005   0.00005  -0.00005  -0.35428  -0.00015  -0.00000   0.00007   0.00015 ...
  -0.00001  -0.00001  -0.00010  -0.00000  -0.00010  -0.00015  -0.00000  -0.00015  -0.01699  -0.00000  -0.00000  -0.00000 ...
   0.00001   0.00001   0.00010  -0.00010  -0.00000   0.00015  -0.00015  -0.00000  -0.00000  -0.01699  -0.00000   0.00000 ...
   0.00000   0.00000   0.00005   0.00009   0.00005   0.00007   0.00014   0.00007  -0.00000  -0.00000  -0.01700  -0.00000 ...
   0.00001   0.00001  -0.00000  -0.00010   0.00010  -0.00000  -0.00015   0.00015  -0.00000   0.00000  -0.00000  -0.01699 ...
   ...  only 12  components have been written...
 Atom #  4 - Spin component 2
   0.64641   1.08806  -0.00022   0.00022  -0.00022  -0.00034   0.00034  -0.00034  -0.00001   0.00001   0.00000   0.00001 ...
   1.08806   1.82847  -0.00036   0.00036  -0.00036  -0.00056   0.00056  -0.00056  -0.00001   0.00001   0.00000   0.00001 ...
  -0.00022  -0.00036  -0.29817  -0.00003   0.00003  -0.34005  -0.00004   0.00004   0.00010  -0.00010  -0.00005   0.00000 ...
   0.00022   0.00036  -0.00003  -0.29817  -0.00003  -0.00004  -0.34005  -0.00004   0.00000   0.00010  -0.00009   0.00010 ...
  -0.00022  -0.00036   0.00003  -0.00003  -0.29817   0.00004  -0.00004  -0.34005   0.00010   0.00000  -0.00005  -0.00010 ...
  -0.00034  -0.00056  -0.34005  -0.00004   0.00004  -0.35428  -0.00005   0.00005   0.00015  -0.00015  -0.00007   0.00000 ...
   0.00034   0.00056  -0.00004  -0.34005  -0.00004  -0.00005  -0.35428  -0.00005   0.00000   0.00015  -0.00014   0.00015 ...
  -0.00034  -0.00056   0.00004  -0.00004  -0.34005   0.00005  -0.00005  -0.35428   0.00015   0.00000  -0.00007  -0.00015 ...
  -0.00001  -0.00001   0.00010   0.00000   0.00010   0.00015   0.00000   0.00015  -0.01699  -0.00000  -0.00000  -0.00000 ...
   0.00001   0.00001  -0.00010   0.00010   0.00000  -0.00015   0.00015   0.00000  -0.00000  -0.01699  -0.00000   0.00000 ...
   0.00000   0.00000  -0.00005  -0.00009  -0.00005  -0.00007  -0.00014  -0.00007  -0.00000  -0.00000  -0.01700  -0.00000 ...
   0.00001   0.00001   0.00000   0.00010  -0.00010   0.00000   0.00015  -0.00015  -0.00000   0.00000  -0.00000  -0.01699 ...
   ...  only 12  components have been written...


 Augmentation waves occupancies Rhoij:
 Atom #  1 - Spin component 1
   1.03181  -0.07643   0.00000   0.00000   0.00000   0.00000   0.00000   0.00000   0.00042  -0.00042   0.00000  -0.00042 ...
  -0.07643   0.18486   0.00000   0.00000   0.00000   0.00000   0.00000   0.00000  -0.00093   0.00093   0.00000   0.00093 ...
   0.00000   0.00000   1.00376   0.00009  -0.00009  -0.03237  -0.00019   0.00019   0.00000   0.00000   0.00000   0.00000 ...
   0.00000   0.00000   0.00009   1.00376   0.00009  -0.00019  -0.03237  -0.00019   0.00000   0.00000   0.00000   0.00000 ...
   0.00000   0.00000  -0.00009   0.00009   1.00376   0.00019  -0.00019  -0.03237   0.00000   0.00000   0.00000   0.00000 ...
   0.00000   0.00000  -0.03237  -0.00019   0.00019   0.17626   0.00024  -0.00024   0.00000   0.00000   0.00000   0.00000 ...
   0.00000   0.00000  -0.00019  -0.03237  -0.00019   0.00024   0.17626   0.00024   0.00000   0.00000   0.00000   0.00000 ...
   0.00000   0.00000   0.00019  -0.00019  -0.03237  -0.00024   0.00024   0.17626   0.00000   0.00000   0.00000   0.00000 ...
   0.00042  -0.00093   0.00000   0.00000   0.00000   0.00000   0.00000   0.00000   0.97315  -0.00022  -0.00139  -0.00022 ...
  -0.00042   0.00093   0.00000   0.00000   0.00000   0.00000   0.00000   0.00000  -0.00022   0.97315  -0.00070   0.00022 ...
   0.00000   0.00000   0.00000   0.00000   0.00000   0.00000   0.00000   0.00000  -0.00139  -0.00070   0.94316  -0.00070 ...
  -0.00042   0.00093   0.00000   0.00000   0.00000   0.00000   0.00000   0.00000  -0.00022   0.00022  -0.00070   0.97315 ...
   ...  only 12  components have been written...
 Atom #  1 - Spin component 2
   1.03203  -0.07933   0.00000   0.00000   0.00000   0.00000   0.00000   0.00000   0.00020  -0.00020   0.00000  -0.00020 ...
  -0.07933   0.19789   0.00000   0.00000   0.00000   0.00000   0.00000   0.00000  -0.00045   0.00045   0.00000   0.00045 ...
   0.00000   0.00000   1.00004  -0.00057   0.00057  -0.02800   0.00162  -0.00162   0.00000   0.00000   0.00000   0.00000 ...
   0.00000   0.00000  -0.00057   1.00004  -0.00057   0.00162  -0.02800   0.00162   0.00000   0.00000   0.00000   0.00000 ...
   0.00000   0.00000   0.00057  -0.00057   1.00004  -0.00162   0.00162  -0.02800   0.00000   0.00000   0.00000   0.00000 ...
   0.00000   0.00000  -0.02800   0.00162  -0.00162   0.18470  -0.00471   0.00471   0.00000   0.00000   0.00000   0.00000 ...
   0.00000   0.00000   0.00162  -0.02800   0.00162  -0.00471   0.18470  -0.00471   0.00000   0.00000   0.00000   0.00000 ...
   0.00000   0.00000  -0.00162   0.00162  -0.02800   0.00471  -0.00471   0.18470   0.00000   0.00000   0.00000   0.00000 ...
   0.00020  -0.00045   0.00000   0.00000   0.00000   0.00000   0.00000   0.00000   0.93898   0.00016   0.00332   0.00016 ...
  -0.00020   0.00045   0.00000   0.00000   0.00000   0.00000   0.00000   0.00000   0.00016   0.93898   0.00166  -0.00016 ...
   0.00000   0.00000   0.00000   0.00000   0.00000   0.00000   0.00000   0.00000   0.00332   0.00166   0.32894   0.00166 ...
  -0.00020   0.00045   0.00000   0.00000   0.00000   0.00000   0.00000   0.00000   0.00016  -0.00016   0.00166   0.93898 ...
   ...  only 12  components have been written...
 Atom #  4 - Spin component 1
   1.04792  -0.05058   0.00067  -0.00067   0.00067  -0.00235   0.00235  -0.00235  -0.00217   0.00217   0.00000   0.00217 ...
  -0.05058   0.01340  -0.00766   0.00766  -0.00766  -0.00145   0.00145  -0.00145  -0.00005   0.00005   0.00000   0.00005 ...
   0.00067  -0.00766   0.96446   0.00085  -0.00085  -0.10060  -0.00072   0.00072  -0.00915   0.00915   0.00305   0.00024 ...
  -0.00067   0.00766   0.00085   0.96446   0.00085  -0.00072  -0.10060  -0.00072   0.00024  -0.00915   0.00611  -0.00915 ...
   0.00067  -0.00766  -0.00085   0.00085   0.96446   0.00072  -0.00072  -0.10060  -0.00915   0.00024   0.00305   0.00915 ...
  -0.00235  -0.00145  -0.10060  -0.00072   0.00072   0.01953  -0.00027   0.00027   0.00094  -0.00094  -0.00064   0.00013 ...
   0.00235   0.00145  -0.00072  -0.10060  -0.00072  -0.00027   0.01953  -0.00027   0.00013   0.00094  -0.00128   0.00094 ...
  -0.00235  -0.00145   0.00072  -0.00072  -0.10060   0.00027  -0.00027   0.01953   0.00094   0.00013  -0.00064  -0.00094 ...
  -0.00217  -0.00005  -0.00915   0.00024  -0.00915   0.00094   0.00013   0.00094   0.01012  -0.00013   0.00084  -0.00013 ...
   0.00217   0.00005   0.00915  -0.00915   0.00024  -0.00094   0.00094   0.00013  -0.00013   0.01012   0.00042   0.00013 ...
   0.00000   0.00000   0.00305   0.00611   0.00305  -0.00064  -0.00128  -0.00064   0.00084   0.00042   0.00798   0.00042 ...
   0.00217   0.00005   0.00024  -0.00915   0.00915   0.00013   0.00094  -0.00094  -0.00013   0.00013   0.00042   0.01012 ...
   ...  only 12  components have been written...
 Atom #  4 - Spin component 2
   1.04792  -0.05058  -0.00067   0.00067  -0.00067   0.00235  -0.00235   0.00235  -0.00217   0.00217   0.00000   0.00217 ...
  -0.05058   0.01340   0.00766  -0.00766   0.00766   0.00145  -0.00145   0.00145  -0.00005   0.00005   0.00000   0.00005 ...
  -0.00067   0.00766   0.96446   0.00085  -0.00085  -0.10060  -0.00072   0.00072   0.00915  -0.00915  -0.00305  -0.00024 ...
   0.00067  -0.00766   0.00085   0.96446   0.00085  -0.00072  -0.10060  -0.00072  -0.00024   0.00915  -0.00611   0.00915 ...
  -0.00067   0.00766  -0.00085   0.00085   0.96446   0.00072  -0.00072  -0.10060   0.00915  -0.00024  -0.00305  -0.00915 ...
   0.00235   0.00145  -0.10060  -0.00072   0.00072   0.01953  -0.00027   0.00027  -0.00094   0.00094   0.00064  -0.00013 ...
  -0.00235  -0.00145  -0.00072  -0.10060  -0.00072  -0.00027   0.01953  -0.00027  -0.00013  -0.00094   0.00128  -0.00094 ...
   0.00235   0.00145   0.00072  -0.00072  -0.10060   0.00027  -0.00027   0.01953  -0.00094  -0.00013   0.00064   0.00094 ...
  -0.00217  -0.00005   0.00915  -0.00024   0.00915  -0.00094  -0.00013  -0.00094   0.01012  -0.00013   0.00084  -0.00013 ...
   0.00217   0.00005  -0.00915   0.00915  -0.00024   0.00094  -0.00094  -0.00013  -0.00013   0.01012   0.00042   0.00013 ...
   0.00000   0.00000  -0.00305  -0.00611  -0.00305   0.00064   0.00128   0.00064   0.00084   0.00042   0.00798   0.00042 ...
   0.00217   0.00005  -0.00024   0.00915  -0.00915  -0.00013  -0.00094   0.00094  -0.00013   0.00013   0.00042   0.01012 ...
   ...  only 12  components have been written...


================================================================================

 ----iterations are completed or convergence reached----

 Mean square residual over all n,k,spin=   1.9260E-08; max=  2.2277E-06
   0.2500  0.2500  0.2500    1  6.89587E-11 kpt; spin; max resid(k); each band:
  5.49E-12 5.26E-12 3.03E-12 3.72E-12 4.13E-12 2.72E-12 2.73E-12 2.91E-12
  1.52E-12 1.39E-12 9.15E-12 1.47E-11 1.05E-11 1.77E-11 1.34E-11 1.47E-11
  7.05E-12 3.47E-12 5.37E-12 7.27E-12 6.95E-12 1.13E-11 8.53E-12 5.90E-12
  5.58E-12 7.96E-12 7.51E-12 9.88E-12 7.49E-12 9.08E-12 1.33E-11 8.49E-12
  1.20E-11 1.05E-11 1.06E-11 1.02E-11 7.72E-12 5.70E-12 1.37E-11 6.90E-11
  -0.2500  0.2500  0.2500    1  1.19583E-09 kpt; spin; max resid(k); each band:
  6.37E-12 5.97E-12 3.18E-12 3.15E-12 3.93E-12 2.38E-12 2.82E-12 2.99E-12
  1.36E-12 1.40E-12 1.04E-11 8.01E-12 1.27E-11 1.71E-11 1.54E-11 1.19E-11
  6.53E-12 7.87E-12 2.33E-12 4.41E-12 8.10E-12 6.72E-12 5.51E-12 4.30E-12
  4.51E-12 7.43E-12 7.59E-12 8.25E-12 8.79E-12 8.92E-12 1.14E-11 1.11E-11
  8.76E-12 9.37E-12 9.87E-12 9.49E-12 5.77E-12 8.51E-12 6.40E-12 1.20E-09
  -0.2500 -0.2500  0.2500    1  2.22768E-06 kpt; spin; max resid(k); each band:
  5.82E-12 5.46E-12 3.47E-12 3.55E-12 3.56E-12 2.69E-12 3.01E-12 2.78E-12
  1.43E-12 1.50E-12 1.18E-11 9.43E-12 1.91E-11 1.70E-11 9.61E-12 9.88E-12
  9.55E-12 3.92E-12 5.03E-12 5.86E-12 8.00E-12 8.43E-12 5.10E-12 7.15E-12
  5.14E-12 9.24E-12 6.73E-12 8.38E-12 9.39E-12 1.09E-11 1.55E-11 1.05E-11
  1.06E-11 8.24E-12 1.09E-11 1.04E-11 8.07E-12 1.20E-11 8.14E-08 2.23E-06
 reduced coordinates (array xred) for    4 atoms
       0.000000000000      0.000000000000      0.000000000000
       0.000000000000      0.000000000000      0.500000000000
       0.500000000000      0.500000000000      0.250000000000
       0.500000000000      0.500000000000      0.750000000000
 rms dE/dt=  0.0000E+00; max dE/dt=  0.0000E+00; dE/dt below (all hartree)
    1       0.000000000000      0.000000000000      0.000000000000
    2       0.000000000000      0.000000000000      0.000000000000
    3       0.000000000000      0.000000000000      0.000000000000
    4       0.000000000000      0.000000000000      0.000000000000

 cartesian coordinates (angstrom) at end:
    1      0.00000000000000     0.00000000000000     0.00000000000000
    2      2.09554174601640     2.09554174601640     0.00000000000000
    3      2.09554174601640     2.09554174601640     2.09554174601640
    4      4.19108349203280     4.19108349203280     2.09554174601640

 cartesian forces (hartree/bohr) at end:
    1     -0.00000000000000    -0.00000000000000    -0.00000000000000
    2     -0.00000000000000    -0.00000000000000    -0.00000000000000
    3     -0.00000000000000    -0.00000000000000    -0.00000000000000
    4     -0.00000000000000    -0.00000000000000    -0.00000000000000
 frms,max,avg= 0.0000000E+00 0.0000000E+00   0.000E+00  0.000E+00  0.000E+00 h/b

 cartesian forces (eV/Angstrom) at end:
    1     -0.00000000000000    -0.00000000000000    -0.00000000000000
    2     -0.00000000000000    -0.00000000000000    -0.00000000000000
    3     -0.00000000000000    -0.00000000000000    -0.00000000000000
    4     -0.00000000000000    -0.00000000000000    -0.00000000000000
 frms,max,avg= 0.0000000E+00 0.0000000E+00   0.000E+00  0.000E+00  0.000E+00 e/A
 length scales=  7.920000000000  7.920000000000  7.920000000000 bohr
              =  4.191083492033  4.191083492033  4.191083492033 angstroms
 prteigrs : about to open file tdftu_1o_EIG
 Fermi (or HOMO) energy (hartree) =   0.22347   Average Vxc (hartree)=  -0.52646
 Eigenvalues (hartree) for nkpt=   3  k points:
 kpt#   1, nband= 40, wtk=  0.25000, kpt=  0.2500  0.2500  0.2500 (reduced coord)
  -3.44748  -3.39679  -2.09044  -2.08983  -2.08950  -2.04088  -2.04083  -2.04047
  -0.48827  -0.45263  -0.03601   0.00954   0.01378   0.03320   0.06782   0.07543
   0.14209   0.16015   0.16642   0.17672   0.18079   0.19427   0.20133   0.20340
   0.23828   0.26086   0.39347   0.53104   0.57099   0.64079   0.72741   0.78738
   0.80175   0.85283   0.93946   1.04663   1.11536   1.13213   1.22030   1.24006
      occupation numbers for kpt#   1
   2.00000   2.00000   2.00000   2.00000   2.00000   2.00000   2.00000   2.00000
   2.00000   2.00000   2.00000   2.00000   2.00000   2.00000   2.00000   2.00000
   2.00000   2.00000   2.00000   1.99999   1.99994   1.99409   1.96314   1.94142
   0.16246   0.00042   0.00000   0.00000   0.00000   0.00000   0.00000   0.00000
   0.00000   0.00000   0.00000   0.00000   0.00000   0.00000   0.00000   0.00000
 kpt#   2, nband= 40, wtk=  0.50000, kpt= -0.2500  0.2500  0.2500 (reduced coord)
  -3.44744  -3.39675  -2.09036  -2.09017  -2.08983  -2.04125  -2.04082  -2.04074
  -0.45967  -0.45021  -0.03551  -0.01783   0.01156   0.02698   0.03527   0.04046
   0.15469   0.16012   0.16839   0.18132   0.18793   0.19859   0.20170   0.20672
   0.24119   0.26190   0.49028   0.53155   0.59574   0.60807   0.63967   0.67207
   0.77045   0.78774   0.99413   1.01316   1.14614   1.18349   1.23017   1.32663
      occupation numbers for kpt#   2
   2.00000   2.00000   2.00000   2.00000   2.00000   2.00000   2.00000   2.00000
   2.00000   2.00000   2.00000   2.00000   2.00000   2.00000   2.00000   2.00000
   2.00000   2.00000   2.00000   1.99993   1.99919   1.98101   1.95988   1.88562
   0.09472   0.00029   0.00000   0.00000   0.00000   0.00000   0.00000   0.00000
   0.00000   0.00000   0.00000   0.00000   0.00000   0.00000   0.00000   0.00000
 kpt#   3, nband= 40, wtk=  0.25000, kpt= -0.2500 -0.2500  0.2500 (reduced coord)
  -3.44748  -3.39679  -2.09026  -2.08983  -2.08951  -2.04083  -2.04072  -2.04048
  -0.47572  -0.46682  -0.02406  -0.01726   0.04076   0.04770   0.05652   0.06556
   0.13514   0.15882   0.16364   0.17556   0.18468   0.19396   0.20346   0.20349
   0.23642   0.26464   0.42559   0.46766   0.64226   0.65934   0.71059   0.74074
   0.81935   0.82580   0.89253   1.05263   1.06477   1.20060   1.29626   1.30839
      occupation numbers for kpt#   3
   2.00000   2.00000   2.00000   2.00000   2.00000   2.00000   2.00000   2.00000
   2.00000   2.00000   2.00000   2.00000   2.00000   2.00000   2.00000   2.00000
   2.00000   2.00000   2.00000   1.99999   1.99974   1.99459   1.94072   1.94029
   0.22182   0.00010   0.00000   0.00000   0.00000   0.00000   0.00000   0.00000
   0.00000   0.00000   0.00000   0.00000   0.00000   0.00000   0.00000   0.00000
 Total charge density [el/Bohr^3]
,     Maximum=    2.0691E+00  at reduced coord.    0.0000    0.0000    0.5000
,Next maximum=    2.0691E+00  at reduced coord.    0.0000    0.0000    0.0000
,     Minimum=    1.2405E-02  at reduced coord.    0.2667    0.2333    0.1167
,Next minimum=    1.2405E-02  at reduced coord.    0.2333    0.2667    0.1167
,  Integrated=    4.8000E+01
 Spin up density      [el/Bohr^3]
,     Maximum=    1.0892E+00  at reduced coord.    0.0000    0.0000    0.0000
,Next maximum=    1.0750E+00  at reduced coord.    0.0000    0.0333    0.9833
,     Minimum=    6.0463E-03  at reduced coord.    0.2667    0.2333    0.1167
,Next minimum=    6.0463E-03  at reduced coord.    0.2333    0.2667    0.1167
,  Integrated=    2.4000E+01
 Spin down density    [el/Bohr^3]
,     Maximum=    1.0892E+00  at reduced coord.    0.0000    0.0000    0.5000
,Next maximum=    1.0750E+00  at reduced coord.    0.0000    0.9667    0.5167
,     Minimum=    6.0463E-03  at reduced coord.    0.7333    0.7333    0.3833
,Next minimum=    6.0463E-03  at reduced coord.    0.7667    0.7333    0.3833
,  Integrated=    2.4000E+01
 Magnetization (spin up - spin down) [el/Bohr^3]
,     Maximum=    1.2640E-01  at reduced coord.    0.1000    0.9000    0.9500
,Next maximum=    1.2640E-01  at reduced coord.    0.9000    0.1000    0.9500
,     Minimum=   -1.2640E-01  at reduced coord.    0.1000    0.1000    0.4500
,Next minimum=   -1.2640E-01  at reduced coord.    0.9000    0.1000    0.4500
,  Integrated=    0.0000E+00
 Relative magnetization (=zeta, between -1 and 1)
,     Maximum=    1.3764E-01  at reduced coord.    0.1667    0.8333    0.9167
,Next maximum=    1.3764E-01  at reduced coord.    0.8333    0.1667    0.9167
,     Minimum=   -1.3764E-01  at reduced coord.    0.1667    0.1667    0.4167
,Next minimum=   -1.3764E-01  at reduced coord.    0.8333    0.1667    0.4167

--------------------------------------------------------------------------------
 Components of total free energy (in Hartree) :

    Kinetic energy  =  4.47243854594077E+01
    Hartree energy  =  5.62007622361414E+01
    XC energy       = -3.21250874203011E+01
    Ewald energy    = -2.38122809319194E+02
    PspCore energy  =  2.14477051759375E+01
    Loc. psp. energy= -1.52456026898032E+02
    Spherical terms = -7.27100455318509E+01
    >>>>> Internal E= -3.73041116297891E+02

    -kT*entropy     = -6.28391562031981E-03
    >>>>>>>>> Etotal= -3.73047400213511E+02

 "Double-counting" decomposition of free energy:
    Band energy     = -3.72111788952953E+01
    Ewald energy    = -2.38122809319194E+02
    PspCore energy  =  2.14477051759375E+01
    Dble-C XC-energy= -4.61503677345663E+01
    Spherical terms = -7.30044371907379E+01
    >>>>> Internal E= -3.73041087963856E+02

    -kT*entropy     = -6.28391562031981E-03
    >>>> Etotal (DC)= -3.73047371879476E+02

  >Total energy in eV           = -1.01511360051849E+04
  >Total DC energy in eV        = -1.01511352341766E+04
--------------------------------------------------------------------------------

 Cartesian components of stress tensor (hartree/bohr^3)
  sigma(1 1)=  1.09482007E-03  sigma(3 2)=  3.85455931E-05
  sigma(2 2)=  1.09482007E-03  sigma(3 1)=  3.85455931E-05
  sigma(3 3)=  1.09482007E-03  sigma(2 1)= -3.85455931E-05

-Cartesian components of stress tensor (GPa)         [Pressure= -3.2211E+01 GPa]
- sigma(1 1)=  3.22107130E+01  sigma(3 2)=  1.13405031E+00
- sigma(2 2)=  3.22107130E+01  sigma(3 1)=  1.13405031E+00
- sigma(3 3)=  3.22107130E+01  sigma(2 1)= -1.13405031E+00

== END DATASET(S) ==============================================================
================================================================================
  
 -outvars: echo values of variables after computation  --------
            acell      7.9200000000E+00  7.9200000000E+00  7.9200000000E+00 Bohr
              amu      5.86900000E+01  1.59994000E+01
      chksymbreak           0
             ecut      1.50000000E+01 Hartree
           etotal     -3.7304737188E+02
            fcart     -0.0000000000E+00 -0.0000000000E+00 -0.0000000000E+00
                      -0.0000000000E+00 -0.0000000000E+00 -0.0000000000E+00
                      -0.0000000000E+00 -0.0000000000E+00 -0.0000000000E+00
                      -0.0000000000E+00 -0.0000000000E+00 -0.0000000000E+00
              ixc           7
              kpt      2.50000000E-01  2.50000000E-01  2.50000000E-01
                      -2.50000000E-01  2.50000000E-01  2.50000000E-01
                      -2.50000000E-01 -2.50000000E-01  2.50000000E-01
         kptrlatt        2    0    0      0    2    0      0    0    2
          kptrlen      1.12005714E+01
P           mkmem           3
            natom           4
            nband          40
            ngfft          20      20      40
          ngfftdg          30      30      60
             nkpt           3
           nspden           2
            nstep          50
             nsym          24
           ntypat           2
              occ      2.000000  2.000000  2.000000  2.000000  2.000000  2.000000
                       2.000000  2.000000  2.000000  2.000000  2.000000  2.000000
                       2.000000  2.000000  2.000000  2.000000  2.000000  2.000000
                       2.000000  1.999990  1.999943  1.994089  1.963135  1.941421
                       0.162463  0.000422  0.000000  0.000000  0.000000  0.000000
                       0.000000  0.000000  0.000000  0.000000  0.000000  0.000000
                       0.000000  0.000000  0.000000  0.000000
                       2.000000  2.000000  2.000000  2.000000  2.000000  2.000000
                       2.000000  2.000000  2.000000  2.000000  2.000000  2.000000
                       2.000000  2.000000  2.000000  2.000000  2.000000  2.000000
                       2.000000  1.999929  1.999193  1.981008  1.959881  1.885615
                       0.094717  0.000290  0.000000  0.000000  0.000000  0.000000
                       0.000000  0.000000  0.000000  0.000000  0.000000  0.000000
                       0.000000  0.000000  0.000000  0.000000
                       2.000000  2.000000  2.000000  2.000000  2.000000  2.000000
                       2.000000  2.000000  2.000000  2.000000  2.000000  2.000000
                       2.000000  2.000000  2.000000  2.000000  2.000000  2.000000
                       2.000000  1.999994  1.999745  1.994589  1.940719  1.940295
                       0.221824  0.000104  0.000000  0.000000  0.000000  0.000000
                       0.000000  0.000000  0.000000  0.000000  0.000000  0.000000
                       0.000000  0.000000  0.000000  0.000000
           occopt           7
        pawecutdg      3.00000000E+01 Hartree
        prtdensph           1
            rprim      0.0000000000E+00  5.0000000000E-01  5.0000000000E-01
                       5.0000000000E-01  0.0000000000E+00  5.0000000000E-01
                       1.0000000000E+00  1.0000000000E+00  0.0000000000E+00
           shiftk      5.00000000E-01  5.00000000E-01  5.00000000E-01
          spgroup         166
           spinat      0.0000000000E+00  0.0000000000E+00  1.0000000000E+00
                       0.0000000000E+00  0.0000000000E+00 -1.0000000000E+00
                       0.0000000000E+00  0.0000000000E+00  0.0000000000E+00
                       0.0000000000E+00  0.0000000000E+00  0.0000000000E+00
           strten      1.0948200678E-03  1.0948200678E-03  1.0948200678E-03
                       3.8545593103E-05  3.8545593103E-05 -3.8545593103E-05
           symafm        1   -1    1   -1    1   -1    1   -1    1   -1
                         1   -1    1   -1    1   -1    1   -1    1   -1
                         1   -1    1   -1
           symrel      1  0  0   0  1  0   0  0  1       1  0  0   0  1  0   0  0  1
                      -1  0  0   0 -1  0   0  0 -1      -1  0  0   0 -1  0   0  0 -1
                       0  1  0   1  0  0   0  0  1       0  1  0   1  0  0   0  0  1
                       0 -1  0  -1  0  0   0  0 -1       0 -1  0  -1  0  0   0  0 -1
                       0 -1  0   1 -1  0   0 -2  1       0 -1  0   1 -1  0   0 -2  1
                       0  1  0  -1  1  0   0  2 -1       0  1  0  -1  1  0   0  2 -1
                       1 -1  0   0 -1  0   0 -2  1       1 -1  0   0 -1  0   0 -2  1
                      -1  1  0   0  1  0   0  2 -1      -1  1  0   0  1  0   0  2 -1
                      -1  1  0  -1  0  0  -2  0  1      -1  1  0  -1  0  0  -2  0  1
                       1 -1  0   1  0  0   2  0 -1       1 -1  0   1  0  0   2  0 -1
                      -1  0  0  -1  1  0  -2  0  1      -1  0  0  -1  1  0  -2  0  1
                       1  0  0   1 -1  0   2  0 -1       1  0  0   1 -1  0   2  0 -1
            tnons      0.0000000  0.0000000  0.0000000     0.0000000  0.0000000  0.5000000
                       0.0000000  0.0000000  0.0000000     0.0000000  0.0000000  0.5000000
                       0.0000000  0.0000000  0.0000000     0.0000000  0.0000000  0.5000000
                       0.0000000  0.0000000  0.0000000     0.0000000  0.0000000  0.5000000
                       0.0000000  0.0000000  0.0000000     0.0000000  0.0000000  0.5000000
                       0.0000000  0.0000000  0.0000000     0.0000000  0.0000000  0.5000000
                       0.0000000  0.0000000  0.0000000     0.0000000  0.0000000  0.5000000
                       0.0000000  0.0000000  0.0000000     0.0000000  0.0000000  0.5000000
                       0.0000000  0.0000000  0.0000000     0.0000000  0.0000000  0.5000000
                       0.0000000  0.0000000  0.0000000     0.0000000  0.0000000  0.5000000
                       0.0000000  0.0000000  0.0000000     0.0000000  0.0000000  0.5000000
                       0.0000000  0.0000000  0.0000000     0.0000000  0.0000000  0.5000000
           toldfe      1.00000000E-08 Hartree
           tsmear      1.50000000E-02 Hartree
            typat      1  1  2  2
           useylm           1
              wtk        0.25000    0.50000    0.25000
           xangst      0.0000000000E+00  0.0000000000E+00  0.0000000000E+00
                       2.0955417460E+00  2.0955417460E+00  0.0000000000E+00
                       2.0955417460E+00  2.0955417460E+00  2.0955417460E+00
                       4.1910834920E+00  4.1910834920E+00  2.0955417460E+00
            xcart      0.0000000000E+00  0.0000000000E+00  0.0000000000E+00
                       3.9600000000E+00  3.9600000000E+00  0.0000000000E+00
                       3.9600000000E+00  3.9600000000E+00  3.9600000000E+00
                       7.9200000000E+00  7.9200000000E+00  3.9600000000E+00
             xred      0.0000000000E+00  0.0000000000E+00  0.0000000000E+00
                       0.0000000000E+00  0.0000000000E+00  5.0000000000E-01
                       5.0000000000E-01  5.0000000000E-01  2.5000000000E-01
                       5.0000000000E-01  5.0000000000E-01  7.5000000000E-01
            znucl       28.00000    8.00000

================================================================================


- Timing analysis has been suppressed with timopt=0



================================================================================

 Suggested references for the acknowledgment of ABINIT usage.

 The users of ABINIT have little formal obligations with respect to the ABINIT group
 (those specified in the GNU General Public License, http://www.gnu.org/copyleft/gpl.txt).
 However, it is common practice in the scientific literature,
 to acknowledge the efforts of people that have made the research possible.
 In this spirit, please find below suggested citations of work written by ABINIT developers,
 corresponding to implementations inside of ABINIT that you have used in the present run.
 Note also that it will be of great value to readers of publications presenting these results,
 to read papers enabling them to understand the theoretical formalism and details
 of the ABINIT implementation.
 For information on why they are suggested, see also http://www.abinit.org/about/?text=acknowledgments.

 [1] Implementation of the Projector Augmented-Wave Method in the ABINIT code.
 M. Torrent, F. Jollet, F. Bottin, G. Zerah, and X. Gonze Comput. Mat. Science 42, 337, (2008).
 Comment : PAW calculations. Strong suggestion to cite this paper.

 [2] ABINIT : First-principles approach of materials and nanosystem properties.
 X. Gonze, B. Amadon, P.-M. Anglade, J.-M. Beuken, F. Bottin, P. Boulanger, F. Bruneval,
 D. Caliste, R. Caracas, M. Cote, T. Deutsch, L. Genovese, Ph. Ghosez, M. Giantomassi
 S. Goedecker, D.R. Hamann, P. Hermet, F. Jollet, G. Jomard, S. Leroux, M. Mancini, S. Mazevet,
 M.J.T. Oliveira, G. Onida, Y. Pouillon, T. Rangel, G.-M. Rignanese, D. Sangalli, R. Shaltaf,
 M. Torrent, M.J. Verstraete, G. Zerah, J.W. Zwanziger
 Computer Phys. Comm. 180, 2582-2615 (2009).
 Comment : the third generic paper describing the ABINIT project.
 Note that a version of this paper, that is not formatted for Computer Phys. Comm. 
 is available at http://www.abinit.org/about/ABINIT_CPC_v10.pdf .
 The licence allows the authors to put it on the Web.

 [3] A brief introduction to the ABINIT software package.
 X. Gonze, G.-M. Rignanese, M. Verstraete, J.-M. Beuken, Y. Pouillon, R. Caracas, F. Jollet,
 M. Torrent, G. Zerah, M. Mikami, Ph. Ghosez, M. Veithen, J.-Y. Raty, V. Olevano, F. Bruneval,
 L. Reining, R. Godby, G. Onida, D.R. Hamann, and D.C. Allan.
 Z. Kristallogr. 220, 558-562 (2005).
 Comment : the second generic paper describing the ABINIT project. Note that this paper
 should be cited especially if you are using the GW part of ABINIT, as several authors
 of this part are not in the list of authors of the first or third paper.
 The .pdf of the latter paper is available at http://www.abinit.org/about/zfk_0505-06_558-562.pdf.
 Note that it should not redistributed (Copyright by Oldenburg Wissenshaftverlag,
 the licence allows the authors to put it on the Web).


 And optionally :

 [4] First-principles computation of material properties : the ABINIT software project. 
 X. Gonze, J.-M. Beuken, R. Caracas, F. Detraux, M. Fuchs, G.-M. Rignanese, L. Sindic,
 M. Verstraete, G. Zerah, F. Jollet, M. Torrent, A. Roy, M. Mikami, Ph. Ghosez, J.-Y. Raty, D.C. Allan.
 Computational Materials Science 25, 478-492 (2002). http://dx.doi.org/10.1016/S0927-0256(02)00325-7
 Comment : the original paper describing the ABINIT project.

 [5] Fast radix 2, 3, 4 and 5 kernels for Fast Fourier Transformations
 on computers with overlapping multiply-add instructions.
 S. Goedecker, SIAM J. on Scientific Computing 18, 1605 (1997).
-
- Proc.   0 individual time (sec): cpu=         23.5  wall=         25.2

================================================================================

 Calculation completed.
.Delivered    7 WARNINGs and   4 COMMENTs to log file.
+Overall time at end (sec) : cpu=         23.5  wall=         25.2
