  ABINIT 
  
  Give name for formatted input file: 
tbs_1.in
  Give name for formatted output file:
tbs_1.out
  Give root name for generic input files:
tbs_1i
  Give root name for generic output files:
tbs_1o
  Give root name for generic temporary files:
tbs_1t

 herald :  WARNING -
  The starting date is more than 3 years after the initial release
  of this version of ABINIT, namely Aug 2013.
  This version of ABINIT is not supported anymore.
  Action : please, switch to a more recent version of ABINIT.

.Version 7.4.3 of ABINIT 
.(MPI version, prepared for a i686_cygwin_gnu4.7 computer) 

.Copyright (C) 1998-2013 ABINIT group . 
 ABINIT comes with ABSOLUTELY NO WARRANTY.
 It is free software, and you are welcome to redistribute it
 under certain conditions (GNU General Public License,
 see ~abinit/COPYING or http://www.gnu.org/copyleft/gpl.txt).

 ABINIT is a project of the Universite Catholique de Louvain,
 Corning Inc. and other collaborators, see ~abinit/doc/developers/contributors.txt .
 Please read ~abinit/doc/users/acknowledgments.html for suggested
 acknowledgments of the ABINIT effort.
 For more information, see http://www.abinit.org .

.Starting date : Mon  4 Jun 2018.
- ( at 13h16 )
  

 herald :  WARNING -
  The starting date is more than 3 years after the initial release
  of this version of ABINIT, namely Aug 2013.
  This version of ABINIT is not supported anymore.
  Action : please, switch to a more recent version of ABINIT.

 herald :  WARNING -
  The starting date is more than 3 years after the initial release
  of this version of ABINIT, namely Aug 2013.
  This version of ABINIT is not supported anymore.
  Action : please, switch to a more recent version of ABINIT.

 ++++++++++++++++++++++++++++++++++++++++++++++++++++++++++++++++++++++++++++++

 === Build Information === 
  Version       : 7.4.3
  Build target  : i686_cygwin_gnu4.7
  Build date    : 20131019

 === Compiler Suite === 
  C compiler       : gnu
  CFLAGS           : -mfpmath=sse -msse2 -O2 -Wstrict-aliasing=2 -static
  C++ compiler     : gnu4.7
  CXXFLAGS         : -mfpmath=sse -msse2 -O2 -Wstrict-aliasing=2 -static
  Fortran compiler : gnu4.7
  FCFLAGS          : -mfpmath=sse -msse2 -O2 -ffree-line-length-none -Wstrict-aliasing=2 -static
  FC_LDFLAGS       : 

 === Optimizations === 
  Debug level        : no
  Optimization level : standard
  Architecture       : _

 === MPI === 
  Parallel build : yes
  Parallel I/O   : no
  Time tracing   : no
  GPU support    : no

 === Connectors / Fallbacks === 
  Connectors on : yes
  Fallbacks on  : yes
  DFT flavor    : libxc+atompaw+bigdft+wannier90
  FFT flavor    : none
  LINALG flavor : netlib
  MATH flavor   : none
  TIMER flavor  : abinit
  TRIO flavor   : netcdf+etsf_io

 === Experimental features === 
  Bindings            : no
  Exports             : no
  GW double-precision : yes

 === Bazaar branch information === 
  Branch ID : xavier.gonze@uclouvain.be-20131019063522-8wupmx7xtg5stywd
  Revision  : 490
  Committed : 0

 ++++++++++++++++++++++++++++++++++++++++++++++++++++++++++++++++++++++++++++++


 ++++++++++++++++++++++++++++++++++++++++++++++++++++++++++++++++++++++++++++++
 Default optimizations:
   --- None ---


 ++++++++++++++++++++++++++++++++++++++++++++++++++++++++++++++++++++++++++++++


 ++++++++++++++++++++++++++++++++++++++++++++++++++++++++++++++++++++++++++++++
 CPP options activated during the build:

                    CC_GNU                   CXX_GNU                    FC_GNU

           HAVE_BZR_BRANCH          HAVE_DFT_ATOMPAW           HAVE_DFT_BIGDFT

            HAVE_DFT_LIBXC        HAVE_DFT_WANNIER90 HAVE_FC_ALLOCATABLE_DT...

      HAVE_FC_COMMAND_LINE        HAVE_FC_CONTIGUOUS           HAVE_FC_CPUTIME

              HAVE_FC_EXIT             HAVE_FC_FLUSH             HAVE_FC_GAMMA

            HAVE_FC_GETENV          HAVE_FC_INT_QUAD             HAVE_FC_IOMSG

     HAVE_FC_ISO_C_BINDING        HAVE_FC_LONG_LINES              HAVE_FC_NULL

         HAVE_FC_STREAM_IO          HAVE_FORTRAN2003               HAVE_LINALG

        HAVE_LINALG_SERIAL                  HAVE_MPI                 HAVE_MPI1

 HAVE_MPI_TYPE_CREATE_S...           HAVE_OS_WINDOWS                HAVE_TIMER

         HAVE_TIMER_ABINIT            HAVE_TIMER_MPI         HAVE_TIMER_SERIAL

         HAVE_TRIO_ETSF_IO          HAVE_TRIO_NETCDF
 ++++++++++++++++++++++++++++++++++++++++++++++++++++++++++++++++++++++++++++++

- input  file    -> tbs_1.in
- output file    -> tbs_1.out
- root for input  files -> tbs_1i
- root for output files -> tbs_1o

-instrng :   132 lines of input have been read from file tbs_1.in


 iofn2 : Please give name of formatted atomic psp file
 iofn2 : for atom type   1 , psp file is 14si.pspnc
  read the values zionpsp=  4.0 , pspcod=   1 , lmax=   2

 inpspheads : deduce mpsang  =   3, n1xccc  =2501.

 invars1m : enter jdtset=     1
 invars1 : treat image number     1

 symlatt : the Bravais lattice is cF (face-centered cubic)
  xred   is defined in input file
 ingeo : takes atomic coordinates from input array xred

 symlatt : the Bravais lattice is cF (face-centered cubic)

 symlatt : the Bravais lattice is cF (face-centered cubic)
 symspgr : the symmetry operation no.   1 is the identity
 symspgr : the symmetry operation no.   2 is an inversion
 symaxes : the symmetry operation no.   3 is a 2-axis
 symplanes : the symmetry operation no.   4 is a d plane
 symaxes : the symmetry operation no.   5 is a 2-axis
 symplanes : the symmetry operation no.   6 is a d plane
 symaxes : the symmetry operation no.   7 is a 2-axis
 symplanes : the symmetry operation no.   8 is a d plane
 symplanes : the symmetry operation no.   9 is a mirror plane
 symaxes : the symmetry operation no.  10 is a 2_1-axis
 symspgr : the symmetry operation no.  11 is a -4 axis
 symaxes : the symmetry operation no.  12 is a 4_1 or 4_3-axis
 symplanes : the symmetry operation no.  13 is a mirror plane
 symaxes : the symmetry operation no.  14 is a 2-axis
 symspgr : the symmetry operation no.  15 is a -4 axis
 symaxes : the symmetry operation no.  16 is a 4_1 or 4_3-axis
 symaxes : the symmetry operation no.  17 is a 3-axis
 symspgr : the symmetry operation no.  18 is a -3 axis
 symaxes : the symmetry operation no.  19 is a 3-axis
 symspgr : the symmetry operation no.  20 is a -3 axis
 symaxes : the symmetry operation no.  21 is a 3-axis
 symspgr : the symmetry operation no.  22 is a -3 axis
 symaxes : the symmetry operation no.  23 is a 3-axis
 symspgr : the symmetry operation no.  24 is a -3 axis
 symplanes : the symmetry operation no.  25 is a mirror plane
 symaxes : the symmetry operation no.  26 is a 2_1-axis
 symspgr : the symmetry operation no.  27 is a -4 axis
 symaxes : the symmetry operation no.  28 is a 4_1 or 4_3-axis
 symspgr : the symmetry operation no.  29 is a -4 axis
 symaxes : the symmetry operation no.  30 is a 4_1 or 4_3-axis
 symplanes : the symmetry operation no.  31 is a mirror plane
 symaxes : the symmetry operation no.  32 is a 2-axis
 symaxes : the symmetry operation no.  33 is a 3-axis
 symspgr : the symmetry operation no.  34 is a -3 axis
 symaxes : the symmetry operation no.  35 is a 3-axis
 symspgr : the symmetry operation no.  36 is a -3 axis
 symaxes : the symmetry operation no.  37 is a 3-axis
 symspgr : the symmetry operation no.  38 is a -3 axis
 symaxes : the symmetry operation no.  39 is a 3-axis
 symspgr : the symmetry operation no.  40 is a -3 axis
 symplanes : the symmetry operation no.  41 is a mirror plane
 symaxes : the symmetry operation no.  42 is a 2-axis
 symplanes : the symmetry operation no.  43 is a mirror plane
 symaxes : the symmetry operation no.  44 is a 2_1-axis
 symspgr : the symmetry operation no.  45 is a -4 axis
 symaxes : the symmetry operation no.  46 is a 4_1 or 4_3-axis
 symspgr : the symmetry operation no.  47 is a -4 axis
 symaxes : the symmetry operation no.  48 is a 4_1 or 4_3-axis
 symspgr : the symmetry operation no.  49 is a pure translation
 symspgr : the symmetry operation no.  50 is an inversion
 symaxes : the symmetry operation no.  51 is a 2_1-axis
 symplanes : the symmetry operation no.  52 is a d plane
 symaxes : the symmetry operation no.  53 is a 2_1-axis
 symplanes : the symmetry operation no.  54 is a d plane
 symaxes : the symmetry operation no.  55 is a 2-axis
 symplanes : the symmetry operation no.  56 is a d plane
 symplanes : the symmetry operation no.  57 is a tertiary m plane
 symaxes : the symmetry operation no.  58 is a 2-axis
 symspgr : the symmetry operation no.  59 is a -4 axis
 symaxes : the symmetry operation no.  60 is a 4_1 or 4_3-axis
 symplanes : the symmetry operation no.  61 is a tertiary m plane
 symaxes : the symmetry operation no.  62 is a 2_1-axis
 symspgr : the symmetry operation no.  63 is a -4 axis
 symaxes : the symmetry operation no.  64 is a 4_1 or 4_3-axis
 symaxes : the symmetry operation no.  65 is a 3, 3_1 or 3_2 axis
 symspgr : the symmetry operation no.  66 is a -3 axis
 symaxes : the symmetry operation no.  67 is a 3-axis
 symspgr : the symmetry operation no.  68 is a -3 axis
 symaxes : the symmetry operation no.  69 is a 3, 3_1 or 3_2 axis
 symspgr : the symmetry operation no.  70 is a -3 axis
 symaxes : the symmetry operation no.  71 is a 3-axis
 symspgr : the symmetry operation no.  72 is a -3 axis
 symplanes : the symmetry operation no.  73 is a tertiary m plane
 symaxes : the symmetry operation no.  74 is a 2_1-axis
 symspgr : the symmetry operation no.  75 is a -4 axis
 symaxes : the symmetry operation no.  76 is a 4_1 or 4_3-axis
 symspgr : the symmetry operation no.  77 is a -4 axis
 symaxes : the symmetry operation no.  78 is a 4_1 or 4_3-axis
 symplanes : the symmetry operation no.  79 is a mirror plane
 symaxes : the symmetry operation no.  80 is a 2-axis
 symaxes : the symmetry operation no.  81 is a 3, 3_1 or 3_2 axis
 symspgr : the symmetry operation no.  82 is a -3 axis
 symaxes : the symmetry operation no.  83 is a 3, 3_1 or 3_2 axis
 symspgr : the symmetry operation no.  84 is a -3 axis
 symaxes : the symmetry operation no.  85 is a 3-axis
 symspgr : the symmetry operation no.  86 is a -3 axis
 symaxes : the symmetry operation no.  87 is a 3-axis
 symspgr : the symmetry operation no.  88 is a -3 axis
 symplanes : the symmetry operation no.  89 is a tertiary m plane
 symaxes : the symmetry operation no.  90 is a 2_1-axis
 symplanes : the symmetry operation no.  91 is a tertiary m plane
 symaxes : the symmetry operation no.  92 is a 2-axis
 symspgr : the symmetry operation no.  93 is a -4 axis
 symaxes : the symmetry operation no.  94 is a 4_1 or 4_3-axis
 symspgr : the symmetry operation no.  95 is a -4 axis
 symaxes : the symmetry operation no.  96 is a 4_1 or 4_3-axis
 symspgr : the symmetry operation no.  97 is a pure translation
 symspgr : the symmetry operation no.  98 is an inversion
 symaxes : the symmetry operation no.  99 is a 2-axis
 symplanes : the symmetry operation no. 100 is a d plane
 symaxes : the symmetry operation no. 101 is a 2_1-axis
 symplanes : the symmetry operation no. 102 is a d plane
 symaxes : the symmetry operation no. 103 is a 2_1-axis
 symplanes : the symmetry operation no. 104 is a d plane
 symplanes : the symmetry operation no. 105 is a tertiary m plane
 symaxes : the symmetry operation no. 106 is a 2-axis
 symspgr : the symmetry operation no. 107 is a -4 axis
 symaxes : the symmetry operation no. 108 is a 4_1 or 4_3-axis
 symplanes : the symmetry operation no. 109 is a tertiary m plane
 symaxes : the symmetry operation no. 110 is a 2_1-axis
 symspgr : the symmetry operation no. 111 is a -4 axis
 symaxes : the symmetry operation no. 112 is a 4_1 or 4_3-axis
 symaxes : the symmetry operation no. 113 is a 3, 3_1 or 3_2 axis
 symspgr : the symmetry operation no. 114 is a -3 axis
 symaxes : the symmetry operation no. 115 is a 3-axis
 symspgr : the symmetry operation no. 116 is a -3 axis
 symaxes : the symmetry operation no. 117 is a 3-axis
 symspgr : the symmetry operation no. 118 is a -3 axis
 symaxes : the symmetry operation no. 119 is a 3, 3_1 or 3_2 axis
 symspgr : the symmetry operation no. 120 is a -3 axis
 symplanes : the symmetry operation no. 121 is a tertiary m plane
 symaxes : the symmetry operation no. 122 is a 2-axis
 symspgr : the symmetry operation no. 123 is a -4 axis
 symaxes : the symmetry operation no. 124 is a 4_1 or 4_3-axis
 symspgr : the symmetry operation no. 125 is a -4 axis
 symaxes : the symmetry operation no. 126 is a 4_1 or 4_3-axis
 symplanes : the symmetry operation no. 127 is a tertiary m plane
 symaxes : the symmetry operation no. 128 is a 2_1-axis
 symaxes : the symmetry operation no. 129 is a 3, 3_1 or 3_2 axis
 symspgr : the symmetry operation no. 130 is a -3 axis
 symaxes : the symmetry operation no. 131 is a 3-axis
 symspgr : the symmetry operation no. 132 is a -3 axis
 symaxes : the symmetry operation no. 133 is a 3, 3_1 or 3_2 axis
 symspgr : the symmetry operation no. 134 is a -3 axis
 symaxes : the symmetry operation no. 135 is a 3-axis
 symspgr : the symmetry operation no. 136 is a -3 axis
 symplanes : the symmetry operation no. 137 is a tertiary m plane
 symaxes : the symmetry operation no. 138 is a 2-axis
 symplanes : the symmetry operation no. 139 is a mirror plane
 symaxes : the symmetry operation no. 140 is a 2_1-axis
 symspgr : the symmetry operation no. 141 is a -4 axis
 symaxes : the symmetry operation no. 142 is a 4_1 or 4_3-axis
 symspgr : the symmetry operation no. 143 is a -4 axis
 symaxes : the symmetry operation no. 144 is a 4_1 or 4_3-axis
 symspgr : the symmetry operation no. 145 is a pure translation
 symspgr : the symmetry operation no. 146 is an inversion
 symaxes : the symmetry operation no. 147 is a 2_1-axis
 symplanes : the symmetry operation no. 148 is a d plane
 symaxes : the symmetry operation no. 149 is a 2-axis
 symplanes : the symmetry operation no. 150 is a d plane
 symaxes : the symmetry operation no. 151 is a 2_1-axis
 symplanes : the symmetry operation no. 152 is a d plane
 symplanes : the symmetry operation no. 153 is a tertiary m plane
 symaxes : the symmetry operation no. 154 is a 2_1-axis
 symspgr : the symmetry operation no. 155 is a -4 axis
 symaxes : the symmetry operation no. 156 is a 4_1 or 4_3-axis
 symplanes : the symmetry operation no. 157 is a mirror plane
 symaxes : the symmetry operation no. 158 is a 2-axis
 symspgr : the symmetry operation no. 159 is a -4 axis
 symaxes : the symmetry operation no. 160 is a 4_1 or 4_3-axis
 symaxes : the symmetry operation no. 161 is a 3, 3_1 or 3_2 axis
 symspgr : the symmetry operation no. 162 is a -3 axis
 symaxes : the symmetry operation no. 163 is a 3, 3_1 or 3_2 axis
 symspgr : the symmetry operation no. 164 is a -3 axis
 symaxes : the symmetry operation no. 165 is a 3-axis
 symspgr : the symmetry operation no. 166 is a -3 axis
 symaxes : the symmetry operation no. 167 is a 3-axis
 symspgr : the symmetry operation no. 168 is a -3 axis
 symplanes : the symmetry operation no. 169 is a tertiary m plane
 symaxes : the symmetry operation no. 170 is a 2-axis
 symspgr : the symmetry operation no. 171 is a -4 axis
 symaxes : the symmetry operation no. 172 is a 4_1 or 4_3-axis
 symspgr : the symmetry operation no. 173 is a -4 axis
 symaxes : the symmetry operation no. 174 is a 4_1 or 4_3-axis
 symplanes : the symmetry operation no. 175 is a tertiary m plane
 symaxes : the symmetry operation no. 176 is a 2_1-axis
 symaxes : the symmetry operation no. 177 is a 3, 3_1 or 3_2 axis
 symspgr : the symmetry operation no. 178 is a -3 axis
 symaxes : the symmetry operation no. 179 is a 3-axis
 symspgr : the symmetry operation no. 180 is a -3 axis
 symaxes : the symmetry operation no. 181 is a 3-axis
 symspgr : the symmetry operation no. 182 is a -3 axis
 symaxes : the symmetry operation no. 183 is a 3, 3_1 or 3_2 axis
 symspgr : the symmetry operation no. 184 is a -3 axis
 symplanes : the symmetry operation no. 185 is a tertiary m plane
 symaxes : the symmetry operation no. 186 is a 2_1-axis
 symplanes : the symmetry operation no. 187 is a tertiary m plane
 symaxes : the symmetry operation no. 188 is a 2-axis
 symspgr : the symmetry operation no. 189 is a -4 axis
 symaxes : the symmetry operation no. 190 is a 4_1 or 4_3-axis
 symspgr : the symmetry operation no. 191 is a -4 axis
 symaxes : the symmetry operation no. 192 is a 4_1 or 4_3-axis
 symspgr : spgroup= 227  Fd -3 m   (=Oh^7)
 getkgrid : length of smallest supercell vector (bohr)=    2.889804E+01
       Simple Lattice Grid
 symkpt : found identity, with number  1

 invars1m : enter jdtset=     2
 invars1 : treat image number     1

 symlatt : the Bravais lattice is cF (face-centered cubic)
  xred   is defined in input file
 ingeo : takes atomic coordinates from input array xred

 symlatt : the Bravais lattice is cF (face-centered cubic)

 symlatt : the Bravais lattice is cF (face-centered cubic)
 symspgr : the symmetry operation no.   1 is the identity
 symspgr : the symmetry operation no.   2 is an inversion
 symaxes : the symmetry operation no.   3 is a 2-axis
 symplanes : the symmetry operation no.   4 is a d plane
 symaxes : the symmetry operation no.   5 is a 2-axis
 symplanes : the symmetry operation no.   6 is a d plane
 symaxes : the symmetry operation no.   7 is a 2-axis
 symplanes : the symmetry operation no.   8 is a d plane
 symplanes : the symmetry operation no.   9 is a mirror plane
 symaxes : the symmetry operation no.  10 is a 2_1-axis
 symspgr : the symmetry operation no.  11 is a -4 axis
 symaxes : the symmetry operation no.  12 is a 4_1 or 4_3-axis
 symplanes : the symmetry operation no.  13 is a mirror plane
 symaxes : the symmetry operation no.  14 is a 2-axis
 symspgr : the symmetry operation no.  15 is a -4 axis
 symaxes : the symmetry operation no.  16 is a 4_1 or 4_3-axis
 symaxes : the symmetry operation no.  17 is a 3-axis
 symspgr : the symmetry operation no.  18 is a -3 axis
 symaxes : the symmetry operation no.  19 is a 3-axis
 symspgr : the symmetry operation no.  20 is a -3 axis
 symaxes : the symmetry operation no.  21 is a 3-axis
 symspgr : the symmetry operation no.  22 is a -3 axis
 symaxes : the symmetry operation no.  23 is a 3-axis
 symspgr : the symmetry operation no.  24 is a -3 axis
 symplanes : the symmetry operation no.  25 is a mirror plane
 symaxes : the symmetry operation no.  26 is a 2_1-axis
 symspgr : the symmetry operation no.  27 is a -4 axis
 symaxes : the symmetry operation no.  28 is a 4_1 or 4_3-axis
 symspgr : the symmetry operation no.  29 is a -4 axis
 symaxes : the symmetry operation no.  30 is a 4_1 or 4_3-axis
 symplanes : the symmetry operation no.  31 is a mirror plane
 symaxes : the symmetry operation no.  32 is a 2-axis
 symaxes : the symmetry operation no.  33 is a 3-axis
 symspgr : the symmetry operation no.  34 is a -3 axis
 symaxes : the symmetry operation no.  35 is a 3-axis
 symspgr : the symmetry operation no.  36 is a -3 axis
 symaxes : the symmetry operation no.  37 is a 3-axis
 symspgr : the symmetry operation no.  38 is a -3 axis
 symaxes : the symmetry operation no.  39 is a 3-axis
 symspgr : the symmetry operation no.  40 is a -3 axis
 symplanes : the symmetry operation no.  41 is a mirror plane
 symaxes : the symmetry operation no.  42 is a 2-axis
 symplanes : the symmetry operation no.  43 is a mirror plane
 symaxes : the symmetry operation no.  44 is a 2_1-axis
 symspgr : the symmetry operation no.  45 is a -4 axis
 symaxes : the symmetry operation no.  46 is a 4_1 or 4_3-axis
 symspgr : the symmetry operation no.  47 is a -4 axis
 symaxes : the symmetry operation no.  48 is a 4_1 or 4_3-axis
 symspgr : the symmetry operation no.  49 is a pure translation
 symspgr : the symmetry operation no.  50 is an inversion
 symaxes : the symmetry operation no.  51 is a 2_1-axis
 symplanes : the symmetry operation no.  52 is a d plane
 symaxes : the symmetry operation no.  53 is a 2_1-axis
 symplanes : the symmetry operation no.  54 is a d plane
 symaxes : the symmetry operation no.  55 is a 2-axis
 symplanes : the symmetry operation no.  56 is a d plane
 symplanes : the symmetry operation no.  57 is a tertiary m plane
 symaxes : the symmetry operation no.  58 is a 2-axis
 symspgr : the symmetry operation no.  59 is a -4 axis
 symaxes : the symmetry operation no.  60 is a 4_1 or 4_3-axis
 symplanes : the symmetry operation no.  61 is a tertiary m plane
 symaxes : the symmetry operation no.  62 is a 2_1-axis
 symspgr : the symmetry operation no.  63 is a -4 axis
 symaxes : the symmetry operation no.  64 is a 4_1 or 4_3-axis
 symaxes : the symmetry operation no.  65 is a 3, 3_1 or 3_2 axis
 symspgr : the symmetry operation no.  66 is a -3 axis
 symaxes : the symmetry operation no.  67 is a 3-axis
 symspgr : the symmetry operation no.  68 is a -3 axis
 symaxes : the symmetry operation no.  69 is a 3, 3_1 or 3_2 axis
 symspgr : the symmetry operation no.  70 is a -3 axis
 symaxes : the symmetry operation no.  71 is a 3-axis
 symspgr : the symmetry operation no.  72 is a -3 axis
 symplanes : the symmetry operation no.  73 is a tertiary m plane
 symaxes : the symmetry operation no.  74 is a 2_1-axis
 symspgr : the symmetry operation no.  75 is a -4 axis
 symaxes : the symmetry operation no.  76 is a 4_1 or 4_3-axis
 symspgr : the symmetry operation no.  77 is a -4 axis
 symaxes : the symmetry operation no.  78 is a 4_1 or 4_3-axis
 symplanes : the symmetry operation no.  79 is a mirror plane
 symaxes : the symmetry operation no.  80 is a 2-axis
 symaxes : the symmetry operation no.  81 is a 3, 3_1 or 3_2 axis
 symspgr : the symmetry operation no.  82 is a -3 axis
 symaxes : the symmetry operation no.  83 is a 3, 3_1 or 3_2 axis
 symspgr : the symmetry operation no.  84 is a -3 axis
 symaxes : the symmetry operation no.  85 is a 3-axis
 symspgr : the symmetry operation no.  86 is a -3 axis
 symaxes : the symmetry operation no.  87 is a 3-axis
 symspgr : the symmetry operation no.  88 is a -3 axis
 symplanes : the symmetry operation no.  89 is a tertiary m plane
 symaxes : the symmetry operation no.  90 is a 2_1-axis
 symplanes : the symmetry operation no.  91 is a tertiary m plane
 symaxes : the symmetry operation no.  92 is a 2-axis
 symspgr : the symmetry operation no.  93 is a -4 axis
 symaxes : the symmetry operation no.  94 is a 4_1 or 4_3-axis
 symspgr : the symmetry operation no.  95 is a -4 axis
 symaxes : the symmetry operation no.  96 is a 4_1 or 4_3-axis
 symspgr : the symmetry operation no.  97 is a pure translation
 symspgr : the symmetry operation no.  98 is an inversion
 symaxes : the symmetry operation no.  99 is a 2-axis
 symplanes : the symmetry operation no. 100 is a d plane
 symaxes : the symmetry operation no. 101 is a 2_1-axis
 symplanes : the symmetry operation no. 102 is a d plane
 symaxes : the symmetry operation no. 103 is a 2_1-axis
 symplanes : the symmetry operation no. 104 is a d plane
 symplanes : the symmetry operation no. 105 is a tertiary m plane
 symaxes : the symmetry operation no. 106 is a 2-axis
 symspgr : the symmetry operation no. 107 is a -4 axis
 symaxes : the symmetry operation no. 108 is a 4_1 or 4_3-axis
 symplanes : the symmetry operation no. 109 is a tertiary m plane
 symaxes : the symmetry operation no. 110 is a 2_1-axis
 symspgr : the symmetry operation no. 111 is a -4 axis
 symaxes : the symmetry operation no. 112 is a 4_1 or 4_3-axis
 symaxes : the symmetry operation no. 113 is a 3, 3_1 or 3_2 axis
 symspgr : the symmetry operation no. 114 is a -3 axis
 symaxes : the symmetry operation no. 115 is a 3-axis
 symspgr : the symmetry operation no. 116 is a -3 axis
 symaxes : the symmetry operation no. 117 is a 3-axis
 symspgr : the symmetry operation no. 118 is a -3 axis
 symaxes : the symmetry operation no. 119 is a 3, 3_1 or 3_2 axis
 symspgr : the symmetry operation no. 120 is a -3 axis
 symplanes : the symmetry operation no. 121 is a tertiary m plane
 symaxes : the symmetry operation no. 122 is a 2-axis
 symspgr : the symmetry operation no. 123 is a -4 axis
 symaxes : the symmetry operation no. 124 is a 4_1 or 4_3-axis
 symspgr : the symmetry operation no. 125 is a -4 axis
 symaxes : the symmetry operation no. 126 is a 4_1 or 4_3-axis
 symplanes : the symmetry operation no. 127 is a tertiary m plane
 symaxes : the symmetry operation no. 128 is a 2_1-axis
 symaxes : the symmetry operation no. 129 is a 3, 3_1 or 3_2 axis
 symspgr : the symmetry operation no. 130 is a -3 axis
 symaxes : the symmetry operation no. 131 is a 3-axis
 symspgr : the symmetry operation no. 132 is a -3 axis
 symaxes : the symmetry operation no. 133 is a 3, 3_1 or 3_2 axis
 symspgr : the symmetry operation no. 134 is a -3 axis
 symaxes : the symmetry operation no. 135 is a 3-axis
 symspgr : the symmetry operation no. 136 is a -3 axis
 symplanes : the symmetry operation no. 137 is a tertiary m plane
 symaxes : the symmetry operation no. 138 is a 2-axis
 symplanes : the symmetry operation no. 139 is a mirror plane
 symaxes : the symmetry operation no. 140 is a 2_1-axis
 symspgr : the symmetry operation no. 141 is a -4 axis
 symaxes : the symmetry operation no. 142 is a 4_1 or 4_3-axis
 symspgr : the symmetry operation no. 143 is a -4 axis
 symaxes : the symmetry operation no. 144 is a 4_1 or 4_3-axis
 symspgr : the symmetry operation no. 145 is a pure translation
 symspgr : the symmetry operation no. 146 is an inversion
 symaxes : the symmetry operation no. 147 is a 2_1-axis
 symplanes : the symmetry operation no. 148 is a d plane
 symaxes : the symmetry operation no. 149 is a 2-axis
 symplanes : the symmetry operation no. 150 is a d plane
 symaxes : the symmetry operation no. 151 is a 2_1-axis
 symplanes : the symmetry operation no. 152 is a d plane
 symplanes : the symmetry operation no. 153 is a tertiary m plane
 symaxes : the symmetry operation no. 154 is a 2_1-axis
 symspgr : the symmetry operation no. 155 is a -4 axis
 symaxes : the symmetry operation no. 156 is a 4_1 or 4_3-axis
 symplanes : the symmetry operation no. 157 is a mirror plane
 symaxes : the symmetry operation no. 158 is a 2-axis
 symspgr : the symmetry operation no. 159 is a -4 axis
 symaxes : the symmetry operation no. 160 is a 4_1 or 4_3-axis
 symaxes : the symmetry operation no. 161 is a 3, 3_1 or 3_2 axis
 symspgr : the symmetry operation no. 162 is a -3 axis
 symaxes : the symmetry operation no. 163 is a 3, 3_1 or 3_2 axis
 symspgr : the symmetry operation no. 164 is a -3 axis
 symaxes : the symmetry operation no. 165 is a 3-axis
 symspgr : the symmetry operation no. 166 is a -3 axis
 symaxes : the symmetry operation no. 167 is a 3-axis
 symspgr : the symmetry operation no. 168 is a -3 axis
 symplanes : the symmetry operation no. 169 is a tertiary m plane
 symaxes : the symmetry operation no. 170 is a 2-axis
 symspgr : the symmetry operation no. 171 is a -4 axis
 symaxes : the symmetry operation no. 172 is a 4_1 or 4_3-axis
 symspgr : the symmetry operation no. 173 is a -4 axis
 symaxes : the symmetry operation no. 174 is a 4_1 or 4_3-axis
 symplanes : the symmetry operation no. 175 is a tertiary m plane
 symaxes : the symmetry operation no. 176 is a 2_1-axis
 symaxes : the symmetry operation no. 177 is a 3, 3_1 or 3_2 axis
 symspgr : the symmetry operation no. 178 is a -3 axis
 symaxes : the symmetry operation no. 179 is a 3-axis
 symspgr : the symmetry operation no. 180 is a -3 axis
 symaxes : the symmetry operation no. 181 is a 3-axis
 symspgr : the symmetry operation no. 182 is a -3 axis
 symaxes : the symmetry operation no. 183 is a 3, 3_1 or 3_2 axis
 symspgr : the symmetry operation no. 184 is a -3 axis
 symplanes : the symmetry operation no. 185 is a tertiary m plane
 symaxes : the symmetry operation no. 186 is a 2_1-axis
 symplanes : the symmetry operation no. 187 is a tertiary m plane
 symaxes : the symmetry operation no. 188 is a 2-axis
 symspgr : the symmetry operation no. 189 is a -4 axis
 symaxes : the symmetry operation no. 190 is a 4_1 or 4_3-axis
 symspgr : the symmetry operation no. 191 is a -4 axis
 symaxes : the symmetry operation no. 192 is a 4_1 or 4_3-axis
 symspgr : spgroup= 227  Fd -3 m   (=Oh^7)
 getkgrid : length of smallest supercell vector (bohr)=    2.889804E+01
       Simple Lattice Grid
 symkpt : found identity, with number  1

 invars1m : enter jdtset=     3
 invars1 : treat image number     1

 symlatt : the Bravais lattice is cF (face-centered cubic)
  xred   is defined in input file
 ingeo : takes atomic coordinates from input array xred

 symlatt : the Bravais lattice is cF (face-centered cubic)

 symlatt : the Bravais lattice is cF (face-centered cubic)
 symspgr : the symmetry operation no.   1 is the identity
 symspgr : the symmetry operation no.   2 is an inversion
 symaxes : the symmetry operation no.   3 is a 2-axis
 symplanes : the symmetry operation no.   4 is a d plane
 symaxes : the symmetry operation no.   5 is a 2-axis
 symplanes : the symmetry operation no.   6 is a d plane
 symaxes : the symmetry operation no.   7 is a 2-axis
 symplanes : the symmetry operation no.   8 is a d plane
 symplanes : the symmetry operation no.   9 is a mirror plane
 symaxes : the symmetry operation no.  10 is a 2_1-axis
 symspgr : the symmetry operation no.  11 is a -4 axis
 symaxes : the symmetry operation no.  12 is a 4_1 or 4_3-axis
 symplanes : the symmetry operation no.  13 is a mirror plane
 symaxes : the symmetry operation no.  14 is a 2-axis
 symspgr : the symmetry operation no.  15 is a -4 axis
 symaxes : the symmetry operation no.  16 is a 4_1 or 4_3-axis
 symaxes : the symmetry operation no.  17 is a 3-axis
 symspgr : the symmetry operation no.  18 is a -3 axis
 symaxes : the symmetry operation no.  19 is a 3-axis
 symspgr : the symmetry operation no.  20 is a -3 axis
 symaxes : the symmetry operation no.  21 is a 3-axis
 symspgr : the symmetry operation no.  22 is a -3 axis
 symaxes : the symmetry operation no.  23 is a 3-axis
 symspgr : the symmetry operation no.  24 is a -3 axis
 symplanes : the symmetry operation no.  25 is a mirror plane
 symaxes : the symmetry operation no.  26 is a 2_1-axis
 symspgr : the symmetry operation no.  27 is a -4 axis
 symaxes : the symmetry operation no.  28 is a 4_1 or 4_3-axis
 symspgr : the symmetry operation no.  29 is a -4 axis
 symaxes : the symmetry operation no.  30 is a 4_1 or 4_3-axis
 symplanes : the symmetry operation no.  31 is a mirror plane
 symaxes : the symmetry operation no.  32 is a 2-axis
 symaxes : the symmetry operation no.  33 is a 3-axis
 symspgr : the symmetry operation no.  34 is a -3 axis
 symaxes : the symmetry operation no.  35 is a 3-axis
 symspgr : the symmetry operation no.  36 is a -3 axis
 symaxes : the symmetry operation no.  37 is a 3-axis
 symspgr : the symmetry operation no.  38 is a -3 axis
 symaxes : the symmetry operation no.  39 is a 3-axis
 symspgr : the symmetry operation no.  40 is a -3 axis
 symplanes : the symmetry operation no.  41 is a mirror plane
 symaxes : the symmetry operation no.  42 is a 2-axis
 symplanes : the symmetry operation no.  43 is a mirror plane
 symaxes : the symmetry operation no.  44 is a 2_1-axis
 symspgr : the symmetry operation no.  45 is a -4 axis
 symaxes : the symmetry operation no.  46 is a 4_1 or 4_3-axis
 symspgr : the symmetry operation no.  47 is a -4 axis
 symaxes : the symmetry operation no.  48 is a 4_1 or 4_3-axis
 symspgr : the symmetry operation no.  49 is a pure translation
 symspgr : the symmetry operation no.  50 is an inversion
 symaxes : the symmetry operation no.  51 is a 2_1-axis
 symplanes : the symmetry operation no.  52 is a d plane
 symaxes : the symmetry operation no.  53 is a 2_1-axis
 symplanes : the symmetry operation no.  54 is a d plane
 symaxes : the symmetry operation no.  55 is a 2-axis
 symplanes : the symmetry operation no.  56 is a d plane
 symplanes : the symmetry operation no.  57 is a tertiary m plane
 symaxes : the symmetry operation no.  58 is a 2-axis
 symspgr : the symmetry operation no.  59 is a -4 axis
 symaxes : the symmetry operation no.  60 is a 4_1 or 4_3-axis
 symplanes : the symmetry operation no.  61 is a tertiary m plane
 symaxes : the symmetry operation no.  62 is a 2_1-axis
 symspgr : the symmetry operation no.  63 is a -4 axis
 symaxes : the symmetry operation no.  64 is a 4_1 or 4_3-axis
 symaxes : the symmetry operation no.  65 is a 3, 3_1 or 3_2 axis
 symspgr : the symmetry operation no.  66 is a -3 axis
 symaxes : the symmetry operation no.  67 is a 3-axis
 symspgr : the symmetry operation no.  68 is a -3 axis
 symaxes : the symmetry operation no.  69 is a 3, 3_1 or 3_2 axis
 symspgr : the symmetry operation no.  70 is a -3 axis
 symaxes : the symmetry operation no.  71 is a 3-axis
 symspgr : the symmetry operation no.  72 is a -3 axis
 symplanes : the symmetry operation no.  73 is a tertiary m plane
 symaxes : the symmetry operation no.  74 is a 2_1-axis
 symspgr : the symmetry operation no.  75 is a -4 axis
 symaxes : the symmetry operation no.  76 is a 4_1 or 4_3-axis
 symspgr : the symmetry operation no.  77 is a -4 axis
 symaxes : the symmetry operation no.  78 is a 4_1 or 4_3-axis
 symplanes : the symmetry operation no.  79 is a mirror plane
 symaxes : the symmetry operation no.  80 is a 2-axis
 symaxes : the symmetry operation no.  81 is a 3, 3_1 or 3_2 axis
 symspgr : the symmetry operation no.  82 is a -3 axis
 symaxes : the symmetry operation no.  83 is a 3, 3_1 or 3_2 axis
 symspgr : the symmetry operation no.  84 is a -3 axis
 symaxes : the symmetry operation no.  85 is a 3-axis
 symspgr : the symmetry operation no.  86 is a -3 axis
 symaxes : the symmetry operation no.  87 is a 3-axis
 symspgr : the symmetry operation no.  88 is a -3 axis
 symplanes : the symmetry operation no.  89 is a tertiary m plane
 symaxes : the symmetry operation no.  90 is a 2_1-axis
 symplanes : the symmetry operation no.  91 is a tertiary m plane
 symaxes : the symmetry operation no.  92 is a 2-axis
 symspgr : the symmetry operation no.  93 is a -4 axis
 symaxes : the symmetry operation no.  94 is a 4_1 or 4_3-axis
 symspgr : the symmetry operation no.  95 is a -4 axis
 symaxes : the symmetry operation no.  96 is a 4_1 or 4_3-axis
 symspgr : the symmetry operation no.  97 is a pure translation
 symspgr : the symmetry operation no.  98 is an inversion
 symaxes : the symmetry operation no.  99 is a 2-axis
 symplanes : the symmetry operation no. 100 is a d plane
 symaxes : the symmetry operation no. 101 is a 2_1-axis
 symplanes : the symmetry operation no. 102 is a d plane
 symaxes : the symmetry operation no. 103 is a 2_1-axis
 symplanes : the symmetry operation no. 104 is a d plane
 symplanes : the symmetry operation no. 105 is a tertiary m plane
 symaxes : the symmetry operation no. 106 is a 2-axis
 symspgr : the symmetry operation no. 107 is a -4 axis
 symaxes : the symmetry operation no. 108 is a 4_1 or 4_3-axis
 symplanes : the symmetry operation no. 109 is a tertiary m plane
 symaxes : the symmetry operation no. 110 is a 2_1-axis
 symspgr : the symmetry operation no. 111 is a -4 axis
 symaxes : the symmetry operation no. 112 is a 4_1 or 4_3-axis
 symaxes : the symmetry operation no. 113 is a 3, 3_1 or 3_2 axis
 symspgr : the symmetry operation no. 114 is a -3 axis
 symaxes : the symmetry operation no. 115 is a 3-axis
 symspgr : the symmetry operation no. 116 is a -3 axis
 symaxes : the symmetry operation no. 117 is a 3-axis
 symspgr : the symmetry operation no. 118 is a -3 axis
 symaxes : the symmetry operation no. 119 is a 3, 3_1 or 3_2 axis
 symspgr : the symmetry operation no. 120 is a -3 axis
 symplanes : the symmetry operation no. 121 is a tertiary m plane
 symaxes : the symmetry operation no. 122 is a 2-axis
 symspgr : the symmetry operation no. 123 is a -4 axis
 symaxes : the symmetry operation no. 124 is a 4_1 or 4_3-axis
 symspgr : the symmetry operation no. 125 is a -4 axis
 symaxes : the symmetry operation no. 126 is a 4_1 or 4_3-axis
 symplanes : the symmetry operation no. 127 is a tertiary m plane
 symaxes : the symmetry operation no. 128 is a 2_1-axis
 symaxes : the symmetry operation no. 129 is a 3, 3_1 or 3_2 axis
 symspgr : the symmetry operation no. 130 is a -3 axis
 symaxes : the symmetry operation no. 131 is a 3-axis
 symspgr : the symmetry operation no. 132 is a -3 axis
 symaxes : the symmetry operation no. 133 is a 3, 3_1 or 3_2 axis
 symspgr : the symmetry operation no. 134 is a -3 axis
 symaxes : the symmetry operation no. 135 is a 3-axis
 symspgr : the symmetry operation no. 136 is a -3 axis
 symplanes : the symmetry operation no. 137 is a tertiary m plane
 symaxes : the symmetry operation no. 138 is a 2-axis
 symplanes : the symmetry operation no. 139 is a mirror plane
 symaxes : the symmetry operation no. 140 is a 2_1-axis
 symspgr : the symmetry operation no. 141 is a -4 axis
 symaxes : the symmetry operation no. 142 is a 4_1 or 4_3-axis
 symspgr : the symmetry operation no. 143 is a -4 axis
 symaxes : the symmetry operation no. 144 is a 4_1 or 4_3-axis
 symspgr : the symmetry operation no. 145 is a pure translation
 symspgr : the symmetry operation no. 146 is an inversion
 symaxes : the symmetry operation no. 147 is a 2_1-axis
 symplanes : the symmetry operation no. 148 is a d plane
 symaxes : the symmetry operation no. 149 is a 2-axis
 symplanes : the symmetry operation no. 150 is a d plane
 symaxes : the symmetry operation no. 151 is a 2_1-axis
 symplanes : the symmetry operation no. 152 is a d plane
 symplanes : the symmetry operation no. 153 is a tertiary m plane
 symaxes : the symmetry operation no. 154 is a 2_1-axis
 symspgr : the symmetry operation no. 155 is a -4 axis
 symaxes : the symmetry operation no. 156 is a 4_1 or 4_3-axis
 symplanes : the symmetry operation no. 157 is a mirror plane
 symaxes : the symmetry operation no. 158 is a 2-axis
 symspgr : the symmetry operation no. 159 is a -4 axis
 symaxes : the symmetry operation no. 160 is a 4_1 or 4_3-axis
 symaxes : the symmetry operation no. 161 is a 3, 3_1 or 3_2 axis
 symspgr : the symmetry operation no. 162 is a -3 axis
 symaxes : the symmetry operation no. 163 is a 3, 3_1 or 3_2 axis
 symspgr : the symmetry operation no. 164 is a -3 axis
 symaxes : the symmetry operation no. 165 is a 3-axis
 symspgr : the symmetry operation no. 166 is a -3 axis
 symaxes : the symmetry operation no. 167 is a 3-axis
 symspgr : the symmetry operation no. 168 is a -3 axis
 symplanes : the symmetry operation no. 169 is a tertiary m plane
 symaxes : the symmetry operation no. 170 is a 2-axis
 symspgr : the symmetry operation no. 171 is a -4 axis
 symaxes : the symmetry operation no. 172 is a 4_1 or 4_3-axis
 symspgr : the symmetry operation no. 173 is a -4 axis
 symaxes : the symmetry operation no. 174 is a 4_1 or 4_3-axis
 symplanes : the symmetry operation no. 175 is a tertiary m plane
 symaxes : the symmetry operation no. 176 is a 2_1-axis
 symaxes : the symmetry operation no. 177 is a 3, 3_1 or 3_2 axis
 symspgr : the symmetry operation no. 178 is a -3 axis
 symaxes : the symmetry operation no. 179 is a 3-axis
 symspgr : the symmetry operation no. 180 is a -3 axis
 symaxes : the symmetry operation no. 181 is a 3-axis
 symspgr : the symmetry operation no. 182 is a -3 axis
 symaxes : the symmetry operation no. 183 is a 3, 3_1 or 3_2 axis
 symspgr : the symmetry operation no. 184 is a -3 axis
 symplanes : the symmetry operation no. 185 is a tertiary m plane
 symaxes : the symmetry operation no. 186 is a 2_1-axis
 symplanes : the symmetry operation no. 187 is a tertiary m plane
 symaxes : the symmetry operation no. 188 is a 2-axis
 symspgr : the symmetry operation no. 189 is a -4 axis
 symaxes : the symmetry operation no. 190 is a 4_1 or 4_3-axis
 symspgr : the symmetry operation no. 191 is a -4 axis
 symaxes : the symmetry operation no. 192 is a 4_1 or 4_3-axis
 symspgr : spgroup= 227  Fd -3 m   (=Oh^7)
 getkgrid : length of smallest supercell vector (bohr)=    2.889804E+01
       Simple Lattice Grid
 symkpt : found identity, with number  1

 invars1m : enter jdtset=     4
 invars1 : treat image number     1

 symlatt : the Bravais lattice is cF (face-centered cubic)
  xred   is defined in input file
 ingeo : takes atomic coordinates from input array xred

 symlatt : the Bravais lattice is cF (face-centered cubic)

 symlatt : the Bravais lattice is cF (face-centered cubic)
 symspgr : the symmetry operation no.   1 is the identity
 symspgr : the symmetry operation no.   2 is an inversion
 symaxes : the symmetry operation no.   3 is a 2-axis
 symplanes : the symmetry operation no.   4 is a d plane
 symaxes : the symmetry operation no.   5 is a 2-axis
 symplanes : the symmetry operation no.   6 is a d plane
 symaxes : the symmetry operation no.   7 is a 2-axis
 symplanes : the symmetry operation no.   8 is a d plane
 symplanes : the symmetry operation no.   9 is a mirror plane
 symaxes : the symmetry operation no.  10 is a 2_1-axis
 symspgr : the symmetry operation no.  11 is a -4 axis
 symaxes : the symmetry operation no.  12 is a 4_1 or 4_3-axis
 symplanes : the symmetry operation no.  13 is a mirror plane
 symaxes : the symmetry operation no.  14 is a 2-axis
 symspgr : the symmetry operation no.  15 is a -4 axis
 symaxes : the symmetry operation no.  16 is a 4_1 or 4_3-axis
 symaxes : the symmetry operation no.  17 is a 3-axis
 symspgr : the symmetry operation no.  18 is a -3 axis
 symaxes : the symmetry operation no.  19 is a 3-axis
 symspgr : the symmetry operation no.  20 is a -3 axis
 symaxes : the symmetry operation no.  21 is a 3-axis
 symspgr : the symmetry operation no.  22 is a -3 axis
 symaxes : the symmetry operation no.  23 is a 3-axis
 symspgr : the symmetry operation no.  24 is a -3 axis
 symplanes : the symmetry operation no.  25 is a mirror plane
 symaxes : the symmetry operation no.  26 is a 2_1-axis
 symspgr : the symmetry operation no.  27 is a -4 axis
 symaxes : the symmetry operation no.  28 is a 4_1 or 4_3-axis
 symspgr : the symmetry operation no.  29 is a -4 axis
 symaxes : the symmetry operation no.  30 is a 4_1 or 4_3-axis
 symplanes : the symmetry operation no.  31 is a mirror plane
 symaxes : the symmetry operation no.  32 is a 2-axis
 symaxes : the symmetry operation no.  33 is a 3-axis
 symspgr : the symmetry operation no.  34 is a -3 axis
 symaxes : the symmetry operation no.  35 is a 3-axis
 symspgr : the symmetry operation no.  36 is a -3 axis
 symaxes : the symmetry operation no.  37 is a 3-axis
 symspgr : the symmetry operation no.  38 is a -3 axis
 symaxes : the symmetry operation no.  39 is a 3-axis
 symspgr : the symmetry operation no.  40 is a -3 axis
 symplanes : the symmetry operation no.  41 is a mirror plane
 symaxes : the symmetry operation no.  42 is a 2-axis
 symplanes : the symmetry operation no.  43 is a mirror plane
 symaxes : the symmetry operation no.  44 is a 2_1-axis
 symspgr : the symmetry operation no.  45 is a -4 axis
 symaxes : the symmetry operation no.  46 is a 4_1 or 4_3-axis
 symspgr : the symmetry operation no.  47 is a -4 axis
 symaxes : the symmetry operation no.  48 is a 4_1 or 4_3-axis
 symspgr : the symmetry operation no.  49 is a pure translation
 symspgr : the symmetry operation no.  50 is an inversion
 symaxes : the symmetry operation no.  51 is a 2_1-axis
 symplanes : the symmetry operation no.  52 is a d plane
 symaxes : the symmetry operation no.  53 is a 2_1-axis
 symplanes : the symmetry operation no.  54 is a d plane
 symaxes : the symmetry operation no.  55 is a 2-axis
 symplanes : the symmetry operation no.  56 is a d plane
 symplanes : the symmetry operation no.  57 is a tertiary m plane
 symaxes : the symmetry operation no.  58 is a 2-axis
 symspgr : the symmetry operation no.  59 is a -4 axis
 symaxes : the symmetry operation no.  60 is a 4_1 or 4_3-axis
 symplanes : the symmetry operation no.  61 is a tertiary m plane
 symaxes : the symmetry operation no.  62 is a 2_1-axis
 symspgr : the symmetry operation no.  63 is a -4 axis
 symaxes : the symmetry operation no.  64 is a 4_1 or 4_3-axis
 symaxes : the symmetry operation no.  65 is a 3, 3_1 or 3_2 axis
 symspgr : the symmetry operation no.  66 is a -3 axis
 symaxes : the symmetry operation no.  67 is a 3-axis
 symspgr : the symmetry operation no.  68 is a -3 axis
 symaxes : the symmetry operation no.  69 is a 3, 3_1 or 3_2 axis
 symspgr : the symmetry operation no.  70 is a -3 axis
 symaxes : the symmetry operation no.  71 is a 3-axis
 symspgr : the symmetry operation no.  72 is a -3 axis
 symplanes : the symmetry operation no.  73 is a tertiary m plane
 symaxes : the symmetry operation no.  74 is a 2_1-axis
 symspgr : the symmetry operation no.  75 is a -4 axis
 symaxes : the symmetry operation no.  76 is a 4_1 or 4_3-axis
 symspgr : the symmetry operation no.  77 is a -4 axis
 symaxes : the symmetry operation no.  78 is a 4_1 or 4_3-axis
 symplanes : the symmetry operation no.  79 is a mirror plane
 symaxes : the symmetry operation no.  80 is a 2-axis
 symaxes : the symmetry operation no.  81 is a 3, 3_1 or 3_2 axis
 symspgr : the symmetry operation no.  82 is a -3 axis
 symaxes : the symmetry operation no.  83 is a 3, 3_1 or 3_2 axis
 symspgr : the symmetry operation no.  84 is a -3 axis
 symaxes : the symmetry operation no.  85 is a 3-axis
 symspgr : the symmetry operation no.  86 is a -3 axis
 symaxes : the symmetry operation no.  87 is a 3-axis
 symspgr : the symmetry operation no.  88 is a -3 axis
 symplanes : the symmetry operation no.  89 is a tertiary m plane
 symaxes : the symmetry operation no.  90 is a 2_1-axis
 symplanes : the symmetry operation no.  91 is a tertiary m plane
 symaxes : the symmetry operation no.  92 is a 2-axis
 symspgr : the symmetry operation no.  93 is a -4 axis
 symaxes : the symmetry operation no.  94 is a 4_1 or 4_3-axis
 symspgr : the symmetry operation no.  95 is a -4 axis
 symaxes : the symmetry operation no.  96 is a 4_1 or 4_3-axis
 symspgr : the symmetry operation no.  97 is a pure translation
 symspgr : the symmetry operation no.  98 is an inversion
 symaxes : the symmetry operation no.  99 is a 2-axis
 symplanes : the symmetry operation no. 100 is a d plane
 symaxes : the symmetry operation no. 101 is a 2_1-axis
 symplanes : the symmetry operation no. 102 is a d plane
 symaxes : the symmetry operation no. 103 is a 2_1-axis
 symplanes : the symmetry operation no. 104 is a d plane
 symplanes : the symmetry operation no. 105 is a tertiary m plane
 symaxes : the symmetry operation no. 106 is a 2-axis
 symspgr : the symmetry operation no. 107 is a -4 axis
 symaxes : the symmetry operation no. 108 is a 4_1 or 4_3-axis
 symplanes : the symmetry operation no. 109 is a tertiary m plane
 symaxes : the symmetry operation no. 110 is a 2_1-axis
 symspgr : the symmetry operation no. 111 is a -4 axis
 symaxes : the symmetry operation no. 112 is a 4_1 or 4_3-axis
 symaxes : the symmetry operation no. 113 is a 3, 3_1 or 3_2 axis
 symspgr : the symmetry operation no. 114 is a -3 axis
 symaxes : the symmetry operation no. 115 is a 3-axis
 symspgr : the symmetry operation no. 116 is a -3 axis
 symaxes : the symmetry operation no. 117 is a 3-axis
 symspgr : the symmetry operation no. 118 is a -3 axis
 symaxes : the symmetry operation no. 119 is a 3, 3_1 or 3_2 axis
 symspgr : the symmetry operation no. 120 is a -3 axis
 symplanes : the symmetry operation no. 121 is a tertiary m plane
 symaxes : the symmetry operation no. 122 is a 2-axis
 symspgr : the symmetry operation no. 123 is a -4 axis
 symaxes : the symmetry operation no. 124 is a 4_1 or 4_3-axis
 symspgr : the symmetry operation no. 125 is a -4 axis
 symaxes : the symmetry operation no. 126 is a 4_1 or 4_3-axis
 symplanes : the symmetry operation no. 127 is a tertiary m plane
 symaxes : the symmetry operation no. 128 is a 2_1-axis
 symaxes : the symmetry operation no. 129 is a 3, 3_1 or 3_2 axis
 symspgr : the symmetry operation no. 130 is a -3 axis
 symaxes : the symmetry operation no. 131 is a 3-axis
 symspgr : the symmetry operation no. 132 is a -3 axis
 symaxes : the symmetry operation no. 133 is a 3, 3_1 or 3_2 axis
 symspgr : the symmetry operation no. 134 is a -3 axis
 symaxes : the symmetry operation no. 135 is a 3-axis
 symspgr : the symmetry operation no. 136 is a -3 axis
 symplanes : the symmetry operation no. 137 is a tertiary m plane
 symaxes : the symmetry operation no. 138 is a 2-axis
 symplanes : the symmetry operation no. 139 is a mirror plane
 symaxes : the symmetry operation no. 140 is a 2_1-axis
 symspgr : the symmetry operation no. 141 is a -4 axis
 symaxes : the symmetry operation no. 142 is a 4_1 or 4_3-axis
 symspgr : the symmetry operation no. 143 is a -4 axis
 symaxes : the symmetry operation no. 144 is a 4_1 or 4_3-axis
 symspgr : the symmetry operation no. 145 is a pure translation
 symspgr : the symmetry operation no. 146 is an inversion
 symaxes : the symmetry operation no. 147 is a 2_1-axis
 symplanes : the symmetry operation no. 148 is a d plane
 symaxes : the symmetry operation no. 149 is a 2-axis
 symplanes : the symmetry operation no. 150 is a d plane
 symaxes : the symmetry operation no. 151 is a 2_1-axis
 symplanes : the symmetry operation no. 152 is a d plane
 symplanes : the symmetry operation no. 153 is a tertiary m plane
 symaxes : the symmetry operation no. 154 is a 2_1-axis
 symspgr : the symmetry operation no. 155 is a -4 axis
 symaxes : the symmetry operation no. 156 is a 4_1 or 4_3-axis
 symplanes : the symmetry operation no. 157 is a mirror plane
 symaxes : the symmetry operation no. 158 is a 2-axis
 symspgr : the symmetry operation no. 159 is a -4 axis
 symaxes : the symmetry operation no. 160 is a 4_1 or 4_3-axis
 symaxes : the symmetry operation no. 161 is a 3, 3_1 or 3_2 axis
 symspgr : the symmetry operation no. 162 is a -3 axis
 symaxes : the symmetry operation no. 163 is a 3, 3_1 or 3_2 axis
 symspgr : the symmetry operation no. 164 is a -3 axis
 symaxes : the symmetry operation no. 165 is a 3-axis
 symspgr : the symmetry operation no. 166 is a -3 axis
 symaxes : the symmetry operation no. 167 is a 3-axis
 symspgr : the symmetry operation no. 168 is a -3 axis
 symplanes : the symmetry operation no. 169 is a tertiary m plane
 symaxes : the symmetry operation no. 170 is a 2-axis
 symspgr : the symmetry operation no. 171 is a -4 axis
 symaxes : the symmetry operation no. 172 is a 4_1 or 4_3-axis
 symspgr : the symmetry operation no. 173 is a -4 axis
 symaxes : the symmetry operation no. 174 is a 4_1 or 4_3-axis
 symplanes : the symmetry operation no. 175 is a tertiary m plane
 symaxes : the symmetry operation no. 176 is a 2_1-axis
 symaxes : the symmetry operation no. 177 is a 3, 3_1 or 3_2 axis
 symspgr : the symmetry operation no. 178 is a -3 axis
 symaxes : the symmetry operation no. 179 is a 3-axis
 symspgr : the symmetry operation no. 180 is a -3 axis
 symaxes : the symmetry operation no. 181 is a 3-axis
 symspgr : the symmetry operation no. 182 is a -3 axis
 symaxes : the symmetry operation no. 183 is a 3, 3_1 or 3_2 axis
 symspgr : the symmetry operation no. 184 is a -3 axis
 symplanes : the symmetry operation no. 185 is a tertiary m plane
 symaxes : the symmetry operation no. 186 is a 2_1-axis
 symplanes : the symmetry operation no. 187 is a tertiary m plane
 symaxes : the symmetry operation no. 188 is a 2-axis
 symspgr : the symmetry operation no. 189 is a -4 axis
 symaxes : the symmetry operation no. 190 is a 4_1 or 4_3-axis
 symspgr : the symmetry operation no. 191 is a -4 axis
 symaxes : the symmetry operation no. 192 is a 4_1 or 4_3-axis
 symspgr : spgroup= 227  Fd -3 m   (=Oh^7)
 getkgrid : length of smallest supercell vector (bohr)=    2.889804E+01
       Simple Lattice Grid
 symkpt : found identity, with number  1
 invars2: take the default value of fband=  1.25000000E-01
 getkgrid : length of smallest supercell vector (bohr)=    2.889804E+01
       Simple Lattice Grid
 symkpt : found identity, with number  1
  dtset%nelect=   8.0000000000000000     
 chkneu : initialized the occupation numbers for occopt=    1
    spin-unpolarized case :
  2.00  2.00  2.00  2.00  0.00
 getkgrid : length of smallest supercell vector (bohr)=    2.889804E+01
       Simple Lattice Grid
 symkpt : found identity, with number  1
  dtset%nelect=   8.0000000000000000     
 chkneu : initialized the occupation numbers for occopt=    1
    spin-unpolarized case :
  2.00  2.00  2.00  2.00  0.00  0.00  0.00  0.00  0.00  0.00  0.00  0.00
  0.00  0.00  0.00  0.00  0.00  0.00  0.00  0.00  0.00  0.00  0.00  0.00
  0.00  0.00  0.00  0.00  0.00  0.00  0.00  0.00  0.00  0.00  0.00  0.00
  0.00  0.00  0.00  0.00  0.00  0.00  0.00  0.00  0.00  0.00  0.00  0.00
  0.00  0.00  0.00  0.00  0.00  0.00  0.00  0.00  0.00  0.00  0.00  0.00
  0.00  0.00  0.00  0.00  0.00  0.00  0.00  0.00  0.00  0.00  0.00  0.00
  0.00  0.00  0.00  0.00  0.00  0.00  0.00  0.00  0.00  0.00  0.00  0.00
  0.00  0.00  0.00  0.00  0.00  0.00  0.00  0.00  0.00  0.00  0.00  0.00
  0.00  0.00  0.00  0.00  0.00  0.00  0.00  0.00  0.00
 getkgrid : length of smallest supercell vector (bohr)=    2.889804E+01
       Simple Lattice Grid
 symkpt : found identity, with number  1
  dtset%nelect=   8.0000000000000000     
 chkneu : initialized the occupation numbers for occopt=    1
    spin-unpolarized case :
  2.00  2.00  2.00  2.00  0.00  0.00  0.00  0.00  0.00  0.00  0.00  0.00
  0.00  0.00  0.00
 getkgrid : length of smallest supercell vector (bohr)=    2.889804E+01
       Simple Lattice Grid
 symkpt : found identity, with number  1
  dtset%nelect=   8.0000000000000000     
 chkneu : initialized the occupation numbers for occopt=    1
    spin-unpolarized case :
  2.00  2.00  2.00  2.00  0.00  0.00  0.00  0.00  0.00  0.00  0.00  0.00
  0.00  0.00  0.00  0.00  0.00  0.00  0.00  0.00  0.00  0.00  0.00  0.00
  0.00  0.00  0.00  0.00  0.00  0.00  0.00  0.00  0.00  0.00  0.00  0.00
  0.00  0.00  0.00  0.00  0.00  0.00  0.00  0.00  0.00  0.00  0.00  0.00
  0.00  0.00  0.00  0.00  0.00  0.00  0.00  0.00  0.00  0.00  0.00  0.00
  0.00  0.00  0.00  0.00  0.00  0.00  0.00  0.00  0.00  0.00  0.00  0.00
  0.00  0.00  0.00  0.00  0.00  0.00  0.00  0.00  0.00  0.00  0.00  0.00
  0.00  0.00  0.00  0.00  0.00  0.00  0.00  0.00  0.00  0.00  0.00  0.00
  0.00  0.00  0.00  0.00
 setshells : ecut_trial =     8.00

 m_gsphere.F90:2707:WARNING
  The value ecutwfn=  0.800000E+01 given in the input file leads to
 the same values for nshwfn and npwwfn as ecutwfn=  0.756385E+01
 This value will be adopted for the calculation.

 setshells : ecut_trial =     6.00

 m_gsphere.F90:2707:WARNING
  The value ecuteps=  0.600000E+01 given in the input file leads to
 the same values for nsheps and npweps as ecuteps=  0.510560E+01
 This value will be adopted for the calculation.


 m_gsphere.F90:2588:COMMENT
  One of the three variables ecutsigx, npwsigx, or nshsigx
 must be non-null. Returning.
  mpi_setup : enter 
 mpi_setup1: mkmem  undefined in the input file. Use default mkmem  = nkpt
 mpi_setup1: With nkpt_me=    8 and mkmem  =     8, ground state wf handled in core.
 mpi_setup1: mkqmem undefined in the input file. Use default mkqmem = nkpt
 mpi_setup1: With nkpt_me=    8 and mkqmem =     8, ground state wf handled in core.
 mpi_setup1: mk1mem undefined in the input file. Use default mk1mem = nkpt
 mpi_setup1: With nkpt_me=    8 and mk1mem =     8, ground state wf handled in core.

 getng.F90:200:WARNING
   The second and third dimension of the FFT grid,    0    0  were imposed to be multiple of the number of processors for the FFT,    1
 For input ecut=  8.000000E+00 best grid ngfft=      20      20      20
       max ecut=  9.454813E+00

 ==== FFT mesh ====
  FFT mesh divisions ........................    20   20   20
  Augmented FFT divisions ...................    21   21   20
  FFT algorithm .............................   112
  FFT cache size ............................    16
 getmpw: optimal value of mpw=     303

 mpi_setup : WARNING -
 For non ground state calculation, set bandpp, npfft, npband, npspinor and npkpt to 1
 mpi_setup1: mkmem  undefined in the input file. Use default mkmem  = nkpt
 mpi_setup1: With nkpt_me=    8 and mkmem  =     8, ground state wf handled in core.
 mpi_setup1: mkqmem undefined in the input file. Use default mkqmem = nkpt
 mpi_setup1: With nkpt_me=    8 and mkqmem =     8, ground state wf handled in core.
 mpi_setup1: mk1mem undefined in the input file. Use default mk1mem = nkpt
 mpi_setup1: With nkpt_me=    8 and mk1mem =     8, ground state wf handled in core.
 For input ecut=  8.000000E+00 best grid ngfft=      20      20      20
       max ecut=  9.454813E+00

 ==== FFT mesh ====
  FFT mesh divisions ........................    20   20   20
  Augmented FFT divisions ...................    21   21   20
  FFT algorithm .............................   112
  FFT cache size ............................    16
 getmpw: optimal value of mpw=     303

 mpi_setup : WARNING -
 For non ground state calculation, set bandpp, npfft, npband, npspinor and npkpt to 1
 mpi_setup1: mkmem  undefined in the input file. Use default mkmem  = nkpt
 mpi_setup1: With nkpt_me=   64 and mkmem  =    64, ground state wf handled in core.
 mpi_setup1: mkqmem undefined in the input file. Use default mkqmem = nkpt
 mpi_setup1: With nkpt_me=   64 and mkqmem =    64, ground state wf handled in core.
 mpi_setup1: mk1mem undefined in the input file. Use default mk1mem = nkpt
 mpi_setup1: With nkpt_me=   64 and mk1mem =    64, ground state wf handled in core.
 For input ecut=  8.000000E+00 best grid ngfft=      20      20      20
       max ecut=  9.454813E+00

 ==== FFT mesh ====
  FFT mesh divisions ........................    20   20   20
  Augmented FFT divisions ...................    21   21   20
  FFT algorithm .............................   112
  FFT cache size ............................    16
 getmpw: optimal value of mpw=     298
 mpi_setup1: mkmem  undefined in the input file. Use default mkmem  = nkpt
 mpi_setup1: With nkpt_me=    8 and mkmem  =     8, ground state wf handled in core.
 mpi_setup1: mkqmem undefined in the input file. Use default mkqmem = nkpt
 mpi_setup1: With nkpt_me=    8 and mkqmem =     8, ground state wf handled in core.
 mpi_setup1: mk1mem undefined in the input file. Use default mk1mem = nkpt
 mpi_setup1: With nkpt_me=    8 and mk1mem =     8, ground state wf handled in core.
 For input ecut=  7.563851E+00 best grid ngfft=      18      18      18
       max ecut=  7.705673E+00

 ==== FFT mesh ====
  FFT mesh divisions ........................    18   18   18
  Augmented FFT divisions ...................    19   19   18
  FFT algorithm .............................   112
  FFT cache size ............................    16
 getmpw: optimal value of mpw=     274

 DATASET    1 : space group Fd -3 m (#227); Bravais cF (face-center cubic)

 getdim_nloc : deduce lmnmax  =   4, lnmax  =   2,
                      lmnmaxso=   4, lnmaxso=   2.
 setmqgrid : COMMENT -
  The number of points "mqgrid" in reciprocal space used for the
  description of the pseudopotentials has been set automatically
  by abinit to :     3001.
 memory : analysis of memory needs
================================================================================
 Values of the parameters that define the memory need for DATASET  1.
   intxc =         0  ionmov =         0    iscf =         7 xclevel =         1
  lmnmax =         2   lnmax =         2   mband =         5  mffmem =         1
P  mgfft =        20   mkmem =         8 mpssoang=         3     mpw =       303
  mqgrid =      3001   natom =         2    nfft =      8000    nkpt =         8
  nloalg =         4  nspden =         1 nspinor =         1  nsppol =         1
    nsym =        48  n1xccc =      2501  ntypat =         1  occopt =         1
================================================================================
P This job should need less than                       3.076 Mbytes of memory.
  Rough estimation (10% accuracy) of disk space for files :
_ WF disk file :      0.187 Mbytes ; DEN or POT disk file :      0.063 Mbytes.
================================================================================

 Biggest array : f_fftgr(disk), with      0.9786 MBytes.
 memana : allocated an array of      0.979 Mbytes, for testing purposes.
 memana : allocated       3.076 Mbytes, for testing purposes.
 The job will continue.

 DATASET    2 : space group Fd -3 m (#227); Bravais cF (face-center cubic)

 getdim_nloc : deduce lmnmax  =   4, lnmax  =   2,
                      lmnmaxso=   4, lnmaxso=   2.
 setmqgrid : COMMENT -
  The number of points "mqgrid" in reciprocal space used for the
  description of the pseudopotentials has been set automatically
  by abinit to :     3001.
 memory : analysis of memory needs
================================================================================
 Values of the parameters that define the memory need for DATASET  2.
   intxc =         0  ionmov =         0    iscf =        -2 xclevel =         1
  lmnmax =         2   lnmax =         2   mband =       105  mffmem =         1
P  mgfft =        20   mkmem =         8 mpssoang=         3     mpw =       303
  mqgrid =      3001   natom =         2    nfft =      8000    nkpt =         8
  nloalg =         4  nspden =         1 nspinor =         1  nsppol =         1
    nsym =        48  n1xccc =      2501  ntypat =         1  occopt =         1
================================================================================
P This job should need less than                       6.188 Mbytes of memory.
  Rough estimation (10% accuracy) of disk space for files :
_ WF disk file :      3.886 Mbytes ; DEN or POT disk file :      0.063 Mbytes.
================================================================================

 Biggest array : cg(disk), with      3.8857 MBytes.
 memana : allocated an array of      3.886 Mbytes, for testing purposes.
 memana : allocated       6.188 Mbytes, for testing purposes.
 The job will continue.

 DATASET    3 : space group Fd -3 m (#227); Bravais cF (face-center cubic)

 getdim_nloc : deduce lmnmax  =   4, lnmax  =   2,
                      lmnmaxso=   4, lnmaxso=   2.
 setmqgrid : COMMENT -
  The number of points "mqgrid" in reciprocal space used for the
  description of the pseudopotentials has been set automatically
  by abinit to :     3001.
 memory : analysis of memory needs
================================================================================
 Values of the parameters that define the memory need for DATASET  3.
   intxc =         0  ionmov =         0    iscf =        -2 xclevel =         1
  lmnmax =         2   lnmax =         2   mband =        15  mffmem =         1
P  mgfft =        20   mkmem =        64 mpssoang=         3     mpw =       298
  mqgrid =      3001   natom =         2    nfft =      8000    nkpt =        64
  nloalg =         4  nspden =         1 nspinor =         1  nsppol =         1
    nsym =        48  n1xccc =      2501  ntypat =         1  occopt =         1
================================================================================
P This job should need less than                       6.616 Mbytes of memory.
  Rough estimation (10% accuracy) of disk space for files :
_ WF disk file :      4.367 Mbytes ; DEN or POT disk file :      0.063 Mbytes.
================================================================================

 Biggest array : cg(disk), with      4.3672 MBytes.
 memana : allocated an array of      4.367 Mbytes, for testing purposes.
 memana : allocated       6.616 Mbytes, for testing purposes.
 The job will continue.

 DATASET    4 : space group Fd -3 m (#227); Bravais cF (face-center cubic)

 getdim_nloc : deduce lmnmax  =   4, lnmax  =   2,
                      lmnmaxso=   4, lnmaxso=   2.
 setmqgrid : COMMENT -
  The number of points "mqgrid" in reciprocal space used for the
  description of the pseudopotentials has been set automatically
  by abinit to :     3001.
 memory : analysis of memory needs
================================================================================
 Values of the parameters that define the memory need for DATASET  4.
   intxc =         0  ionmov =         0    iscf =         7 xclevel =         1
  lmnmax =         2   lnmax =         2   mband =       100  mffmem =         1
P  mgfft =        18   mkmem =         8 mpssoang=         3     mpw =       274
  mqgrid =      3001   natom =         2    nfft =      5832    nkpt =         8
  nloalg =         4  nspden =         1 nspinor =         1  nsppol =         1
    nsym =        48  n1xccc =      2501  ntypat =         1  occopt =         1
================================================================================
P This job should need less than                       5.983 Mbytes of memory.
  Rough estimation (10% accuracy) of disk space for files :
_ WF disk file :      3.347 Mbytes ; DEN or POT disk file :      0.046 Mbytes.
================================================================================

 Biggest array : cg(disk), with      3.3467 MBytes.
 memana : allocated an array of      3.347 Mbytes, for testing purposes.
 memana : allocated       5.983 Mbytes, for testing purposes.
 The job will continue.
--------------------------------------------------------------------------------
------------- Echo of variables that govern the present computation ------------
--------------------------------------------------------------------------------
-
- outvars: echo of selected default values                                      
-   accesswff0 =  0 , fftalg0 =112 , wfoptalg0 =  0
-
- outvars: echo of global parameters not present in the input file              
-  max_nthreads =    0
-
 -outvars: echo values of preprocessed input variables --------
 
 These variables are accessible in NetCDF format (tbs_1o_OUT.nc)

            acell      1.0217000000E+01  1.0217000000E+01  1.0217000000E+01 Bohr
              amu      2.80855000E+01
      chksymbreak1          1
      chksymbreak2          1
      chksymbreak3          0
      chksymbreak4          1
           diemac      1.20000000E+01
             ecut1     8.00000000E+00 Hartree
             ecut2     8.00000000E+00 Hartree
             ecut3     8.00000000E+00 Hartree
             ecut4     7.56385066E+00 Hartree
          ecuteps1     0.00000000E+00 Hartree
          ecuteps2     0.00000000E+00 Hartree
          ecuteps3     0.00000000E+00 Hartree
          ecuteps4     5.10559920E+00 Hartree
          ecutwfn1     0.00000000E+00 Hartree
          ecutwfn2     0.00000000E+00 Hartree
          ecutwfn3     0.00000000E+00 Hartree
          ecutwfn4     7.56385066E+00 Hartree
           getden1          0
           getden2          1
           getden3          1
           getden4          0
           getwfk1          0
           getwfk2          0
           getwfk3          0
           getwfk4          2
           gwpara1          1
           gwpara2          1
           gwpara3          1
           gwpara4          2
          inclvkb1          1
          inclvkb2          1
          inclvkb3          1
          inclvkb4          2
             iscf1          7
             iscf2         -2
             iscf3         -2
             iscf4          7
           istwfk1       1    0    1    0    0    0    1    0
           istwfk2       1    0    1    0    0    0    1    0
           istwfk4       1    0    1    0    0    0    1    0
                       outvar_i_n : Printing only first  50 k-points.
           jdtset        1    2    3    4
              kpt1     0.00000000E+00  0.00000000E+00  0.00000000E+00
                       2.50000000E-01  0.00000000E+00  0.00000000E+00
                       5.00000000E-01  0.00000000E+00  0.00000000E+00
                       2.50000000E-01  2.50000000E-01  0.00000000E+00
                       5.00000000E-01  2.50000000E-01  0.00000000E+00
                      -2.50000000E-01  2.50000000E-01  0.00000000E+00
                       5.00000000E-01  5.00000000E-01  0.00000000E+00
                      -2.50000000E-01  5.00000000E-01  2.50000000E-01
              kpt2     0.00000000E+00  0.00000000E+00  0.00000000E+00
                       2.50000000E-01  0.00000000E+00  0.00000000E+00
                       5.00000000E-01  0.00000000E+00  0.00000000E+00
                       2.50000000E-01  2.50000000E-01  0.00000000E+00
                       5.00000000E-01  2.50000000E-01  0.00000000E+00
                      -2.50000000E-01  2.50000000E-01  0.00000000E+00
                       5.00000000E-01  5.00000000E-01  0.00000000E+00
                      -2.50000000E-01  5.00000000E-01  2.50000000E-01
              kpt3     2.75000000E-02  5.25000000E-02  7.75000000E-02
                       2.77500000E-01  5.25000000E-02  7.75000000E-02
                      -4.72500000E-01  5.25000000E-02  7.75000000E-02
                      -2.22500000E-01  5.25000000E-02  7.75000000E-02
                       2.75000000E-02  3.02500000E-01  7.75000000E-02
                       2.77500000E-01  3.02500000E-01  7.75000000E-02
                      -4.72500000E-01  3.02500000E-01  7.75000000E-02
                      -2.22500000E-01  3.02500000E-01  7.75000000E-02
                       2.75000000E-02 -4.47500000E-01  7.75000000E-02
                       2.77500000E-01 -4.47500000E-01  7.75000000E-02
                      -4.72500000E-01 -4.47500000E-01  7.75000000E-02
                      -2.22500000E-01 -4.47500000E-01  7.75000000E-02
                       2.75000000E-02 -1.97500000E-01  7.75000000E-02
                       2.77500000E-01 -1.97500000E-01  7.75000000E-02
                      -4.72500000E-01 -1.97500000E-01  7.75000000E-02
                      -2.22500000E-01 -1.97500000E-01  7.75000000E-02
                       2.75000000E-02  5.25000000E-02  3.27500000E-01
                       2.77500000E-01  5.25000000E-02  3.27500000E-01
                      -4.72500000E-01  5.25000000E-02  3.27500000E-01
                      -2.22500000E-01  5.25000000E-02  3.27500000E-01
                       2.75000000E-02  3.02500000E-01  3.27500000E-01
                       2.77500000E-01  3.02500000E-01  3.27500000E-01
                      -4.72500000E-01  3.02500000E-01  3.27500000E-01
                      -2.22500000E-01  3.02500000E-01  3.27500000E-01
                       2.75000000E-02 -4.47500000E-01  3.27500000E-01
                       2.77500000E-01 -4.47500000E-01  3.27500000E-01
                      -4.72500000E-01 -4.47500000E-01  3.27500000E-01
                      -2.22500000E-01 -4.47500000E-01  3.27500000E-01
                       2.75000000E-02 -1.97500000E-01  3.27500000E-01
                       2.77500000E-01 -1.97500000E-01  3.27500000E-01
                      -4.72500000E-01 -1.97500000E-01  3.27500000E-01
                      -2.22500000E-01 -1.97500000E-01  3.27500000E-01
                       2.75000000E-02  5.25000000E-02 -4.22500000E-01
                       2.77500000E-01  5.25000000E-02 -4.22500000E-01
                      -4.72500000E-01  5.25000000E-02 -4.22500000E-01
                      -2.22500000E-01  5.25000000E-02 -4.22500000E-01
                       2.75000000E-02  3.02500000E-01 -4.22500000E-01
                       2.77500000E-01  3.02500000E-01 -4.22500000E-01
                      -4.72500000E-01  3.02500000E-01 -4.22500000E-01
                      -2.22500000E-01  3.02500000E-01 -4.22500000E-01
                       2.75000000E-02 -4.47500000E-01 -4.22500000E-01
                       2.77500000E-01 -4.47500000E-01 -4.22500000E-01
                      -4.72500000E-01 -4.47500000E-01 -4.22500000E-01
                      -2.22500000E-01 -4.47500000E-01 -4.22500000E-01
                       2.75000000E-02 -1.97500000E-01 -4.22500000E-01
                       2.77500000E-01 -1.97500000E-01 -4.22500000E-01
                      -4.72500000E-01 -1.97500000E-01 -4.22500000E-01
                      -2.22500000E-01 -1.97500000E-01 -4.22500000E-01
                       2.75000000E-02  5.25000000E-02 -1.72500000E-01
                       2.77500000E-01  5.25000000E-02 -1.72500000E-01
              kpt4     0.00000000E+00  0.00000000E+00  0.00000000E+00
                       2.50000000E-01  0.00000000E+00  0.00000000E+00
                       5.00000000E-01  0.00000000E+00  0.00000000E+00
                       2.50000000E-01  2.50000000E-01  0.00000000E+00
                       5.00000000E-01  2.50000000E-01  0.00000000E+00
                      -2.50000000E-01  2.50000000E-01  0.00000000E+00
                       5.00000000E-01  5.00000000E-01  0.00000000E+00
                      -2.50000000E-01  5.00000000E-01  2.50000000E-01
                       outvar_i_n : Printing only first  50 k-points.
         kptrlatt        4    0    0      0    4    0      0    0    4
          kptrlen      2.88980399E+01
P           mkmem1          8
P           mkmem2          8
P           mkmem3         64
P           mkmem4          8
            natom           2
            nband1          5
            nband2        105
            nband3         15
            nband4        100
           nbdbuf1          0
           nbdbuf2          5
           nbdbuf3          5
           nbdbuf4          0
           ndtset           4
          nfreqim1         -1
          nfreqim2         -1
          nfreqim3         -1
          nfreqim4          0
          nfreqre1         -1
          nfreqre2         -1
          nfreqre3         -1
          nfreqre4          1
            ngfft1         20      20      20
            ngfft2         20      20      20
            ngfft3         20      20      20
            ngfft4         18      18      18
             nkpt1          8
             nkpt2          8
             nkpt3         64
             nkpt4          8
           npweps1          0
           npweps2          0
           npweps3          0
           npweps4        169
           npwwfn1          0
           npwwfn2          0
           npwwfn3          0
           npwwfn4        283
           nsheps1          0
           nsheps2          0
           nsheps3          0
           nsheps4         12
            nstep          50
             nsym          48
           ntypat           1
              occ1     2.000000  2.000000  2.000000  2.000000  0.000000
              occ4     2.000000  2.000000  2.000000  2.000000  0.000000  0.000000
                       0.000000  0.000000  0.000000  0.000000  0.000000  0.000000
                       0.000000  0.000000  0.000000  0.000000  0.000000  0.000000
                       0.000000  0.000000  0.000000  0.000000  0.000000  0.000000
                       0.000000  0.000000  0.000000  0.000000  0.000000  0.000000
                       0.000000  0.000000  0.000000  0.000000  0.000000  0.000000
                       0.000000  0.000000  0.000000  0.000000  0.000000  0.000000
                       0.000000  0.000000  0.000000  0.000000  0.000000  0.000000
                       0.000000  0.000000  0.000000  0.000000  0.000000  0.000000
                       0.000000  0.000000  0.000000  0.000000  0.000000  0.000000
                       0.000000  0.000000  0.000000  0.000000  0.000000  0.000000
                       0.000000  0.000000  0.000000  0.000000  0.000000  0.000000
                       0.000000  0.000000  0.000000  0.000000  0.000000  0.000000
                       0.000000  0.000000  0.000000  0.000000  0.000000  0.000000
                       0.000000  0.000000  0.000000  0.000000  0.000000  0.000000
                       0.000000  0.000000  0.000000  0.000000  0.000000  0.000000
                       0.000000  0.000000  0.000000  0.000000
        optdriver1          0
        optdriver2          0
        optdriver3          0
        optdriver4          3
            rprim      0.0000000000E+00  5.0000000000E-01  5.0000000000E-01
                       5.0000000000E-01  0.0000000000E+00  5.0000000000E-01
                       5.0000000000E-01  5.0000000000E-01  0.0000000000E+00
           shiftk1     0.00000000E+00  0.00000000E+00  0.00000000E+00
           shiftk2     0.00000000E+00  0.00000000E+00  0.00000000E+00
           shiftk3     1.10000000E-01  2.10000000E-01  3.10000000E-01
           shiftk4     0.00000000E+00  0.00000000E+00  0.00000000E+00
          spgroup         227
           symchi1       0
           symchi2       0
           symchi3       0
           symchi4       1
           symrel      1  0  0   0  1  0   0  0  1      -1  0  0   0 -1  0   0  0 -1
                       0 -1  1   0 -1  0   1 -1  0       0  1 -1   0  1  0  -1  1  0
                      -1  0  0  -1  0  1  -1  1  0       1  0  0   1  0 -1   1 -1  0
                       0  1 -1   1  0 -1   0  0 -1       0 -1  1  -1  0  1   0  0  1
                      -1  0  0  -1  1  0  -1  0  1       1  0  0   1 -1  0   1  0 -1
                       0 -1  1   1 -1  0   0 -1  0       0  1 -1  -1  1  0   0  1  0
                       1  0  0   0  0  1   0  1  0      -1  0  0   0  0 -1   0 -1  0
                       0  1 -1   0  0 -1   1  0 -1       0 -1  1   0  0  1  -1  0  1
                      -1  0  1  -1  1  0  -1  0  0       1  0 -1   1 -1  0   1  0  0
                       0 -1  0   1 -1  0   0 -1  1       0  1  0  -1  1  0   0  1 -1
                       1  0 -1   0  0 -1   0  1 -1      -1  0  1   0  0  1   0 -1  1
                       0  1  0   0  0  1   1  0  0       0 -1  0   0  0 -1  -1  0  0
                       1  0 -1   0  1 -1   0  0 -1      -1  0  1   0 -1  1   0  0  1
                       0 -1  0   0 -1  1   1 -1  0       0  1  0   0  1 -1  -1  1  0
                      -1  0  1  -1  0  0  -1  1  0       1  0 -1   1  0  0   1 -1  0
                       0  1  0   1  0  0   0  0  1       0 -1  0  -1  0  0   0  0 -1
                       0  0 -1   0  1 -1   1  0 -1       0  0  1   0 -1  1  -1  0  1
                       1 -1  0   0 -1  1   0 -1  0      -1  1  0   0  1 -1   0  1  0
                       0  0  1   1  0  0   0  1  0       0  0 -1  -1  0  0   0 -1  0
                      -1  1  0  -1  0  0  -1  0  1       1 -1  0   1  0  0   1  0 -1
                       0  0  1   0  1  0   1  0  0       0  0 -1   0 -1  0  -1  0  0
                       1 -1  0   0 -1  0   0 -1  1      -1  1  0   0  1  0   0  1 -1
                       0  0 -1   1  0 -1   0  1 -1       0  0  1  -1  0  1   0 -1  1
                      -1  1  0  -1  0  1  -1  0  0       1 -1  0   1  0 -1   1  0  0
            tnons      0.0000000  0.0000000  0.0000000     0.2500000  0.2500000  0.2500000
                       0.0000000  0.0000000  0.0000000     0.2500000  0.2500000  0.2500000
                       0.0000000  0.0000000  0.0000000     0.2500000  0.2500000  0.2500000
                       0.0000000  0.0000000  0.0000000     0.2500000  0.2500000  0.2500000
                       0.0000000  0.0000000  0.0000000     0.2500000  0.2500000  0.2500000
                       0.0000000  0.0000000  0.0000000     0.2500000  0.2500000  0.2500000
                       0.0000000  0.0000000  0.0000000     0.2500000  0.2500000  0.2500000
                       0.0000000  0.0000000  0.0000000     0.2500000  0.2500000  0.2500000
                       0.0000000  0.0000000  0.0000000     0.2500000  0.2500000  0.2500000
                       0.0000000  0.0000000  0.0000000     0.2500000  0.2500000  0.2500000
                       0.0000000  0.0000000  0.0000000     0.2500000  0.2500000  0.2500000
                       0.0000000  0.0000000  0.0000000     0.2500000  0.2500000  0.2500000
                       0.0000000  0.0000000  0.0000000     0.2500000  0.2500000  0.2500000
                       0.0000000  0.0000000  0.0000000     0.2500000  0.2500000  0.2500000
                       0.0000000  0.0000000  0.0000000     0.2500000  0.2500000  0.2500000
                       0.0000000  0.0000000  0.0000000     0.2500000  0.2500000  0.2500000
                       0.0000000  0.0000000  0.0000000     0.2500000  0.2500000  0.2500000
[...]
 wfconv:    15 bands initialized randomly with npw=   287, for ikpt=    15
 wfconv:    15 bands initialized randomly with npw=   297, for ikpt=    16
 wfconv:    15 bands initialized randomly with npw=   293, for ikpt=    17
 wfconv:    15 bands initialized randomly with npw=   295, for ikpt=    18
 wfconv:    15 bands initialized randomly with npw=   288, for ikpt=    19
 wfconv:    15 bands initialized randomly with npw=   285, for ikpt=    20
 wfconv:    15 bands initialized randomly with npw=   297, for ikpt=    21
 wfconv:    15 bands initialized randomly with npw=   292, for ikpt=    22
 wfconv:    15 bands initialized randomly with npw=   287, for ikpt=    23
 wfconv:    15 bands initialized randomly with npw=   285, for ikpt=    24
 wfconv:    15 bands initialized randomly with npw=   285, for ikpt=    25
 wfconv:    15 bands initialized randomly with npw=   285, for ikpt=    26
 wfconv:    15 bands initialized randomly with npw=   285, for ikpt=    27
 wfconv:    15 bands initialized randomly with npw=   283, for ikpt=    28
 wfconv:    15 bands initialized randomly with npw=   288, for ikpt=    29
 wfconv:    15 bands initialized randomly with npw=   289, for ikpt=    30
 wfconv:    15 bands initialized randomly with npw=   282, for ikpt=    31
 wfconv:    15 bands initialized randomly with npw=   285, for ikpt=    32
 wfconv:    15 bands initialized randomly with npw=   283, for ikpt=    33
 wfconv:    15 bands initialized randomly with npw=   287, for ikpt=    34
 wfconv:    15 bands initialized randomly with npw=   293, for ikpt=    35
 wfconv:    15 bands initialized randomly with npw=   288, for ikpt=    36
 wfconv:    15 bands initialized randomly with npw=   285, for ikpt=    37
 wfconv:    15 bands initialized randomly with npw=   283, for ikpt=    38
 wfconv:    15 bands initialized randomly with npw=   287, for ikpt=    39
 wfconv:    15 bands initialized randomly with npw=   281, for ikpt=    40
 wfconv:    15 bands initialized randomly with npw=   294, for ikpt=    41
 wfconv:    15 bands initialized randomly with npw=   286, for ikpt=    42
 wfconv:    15 bands initialized randomly with npw=   283, for ikpt=    43
 wfconv:    15 bands initialized randomly with npw=   286, for ikpt=    44
 wfconv:    15 bands initialized randomly with npw=   285, for ikpt=    45
 wfconv:    15 bands initialized randomly with npw=   281, for ikpt=    46
 wfconv:    15 bands initialized randomly with npw=   288, for ikpt=    47
 wfconv:    15 bands initialized randomly with npw=   295, for ikpt=    48
 wfconv:    15 bands initialized randomly with npw=   293, for ikpt=    49
 wfconv:    15 bands initialized randomly with npw=   288, for ikpt=    50

 ioarr: reading density data
ioarr: file name is tbs_1o_DS1_DEN

================================================================================

          - hdr_check: checking restart file header for consistency -


        current calculation                         restart file
        -------------------                         ------------

  calculation expects a density         |  input file contains a density
. ABINIT  code version 7.4.3            |  ABINIT  code version 7.4.3
. date 20180604 bantot  960 natom    2  |  date 20180604 bantot   40 natom    2
  nkpt  64 nsym 48 ngfft  20,  20,  20  |  nkpt   8 nsym 48 ngfft  20,  20,  20
  ntypat  1 ecut_eff   8.0000000        |  ntypat  1 ecut_eff   8.0000000
  usepaw  0                             |  usepaw  0
  usewvl  0                             |  usewvl  0
  rprimd:                               |  rprimd:
     0.0000000   5.1085000   5.1085000  |     0.0000000   5.1085000   5.1085000
     5.1085000   0.0000000   5.1085000  |     5.1085000   0.0000000   5.1085000
     5.1085000   5.1085000   0.0000000  |     5.1085000   5.1085000   0.0000000
  symafm:                               |  symafm:
    1  1  1  1  1  1  1  1  1  1  1  1  |    1  1  1  1  1  1  1  1  1  1  1  1
    1  1  1  1  1  1  1  1  1  1  1  1  |    1  1  1  1  1  1  1  1  1  1  1  1
    1  1  1  1  1  1  1  1  1  1  1  1  |    1  1  1  1  1  1  1  1  1  1  1  1
    1  1  1  1  1  1  1  1  1  1  1  1  |    1  1  1  1  1  1  1  1  1  1  1  1
  symrel:                               |  symrel:
    1  0  0  0  1  0  0  0  1           |    1  0  0  0  1  0  0  0  1
   -1  0  0  0 -1  0  0  0 -1           |   -1  0  0  0 -1  0  0  0 -1
    0 -1  1  0 -1  0  1 -1  0           |    0 -1  1  0 -1  0  1 -1  0
    0  1 -1  0  1  0 -1  1  0           |    0  1 -1  0  1  0 -1  1  0
   -1  0  0 -1  0  1 -1  1  0           |   -1  0  0 -1  0  1 -1  1  0
    1  0  0  1  0 -1  1 -1  0           |    1  0  0  1  0 -1  1 -1  0
    0  1 -1  1  0 -1  0  0 -1           |    0  1 -1  1  0 -1  0  0 -1
    0 -1  1 -1  0  1  0  0  1           |    0 -1  1 -1  0  1  0  0  1
   -1  0  0 -1  1  0 -1  0  1           |   -1  0  0 -1  1  0 -1  0  1
    1  0  0  1 -1  0  1  0 -1           |    1  0  0  1 -1  0  1  0 -1
    0 -1  1  1 -1  0  0 -1  0           |    0 -1  1  1 -1  0  0 -1  0
    0  1 -1 -1  1  0  0  1  0           |    0  1 -1 -1  1  0  0  1  0
    1  0  0  0  0  1  0  1  0           |    1  0  0  0  0  1  0  1  0
   -1  0  0  0  0 -1  0 -1  0           |   -1  0  0  0  0 -1  0 -1  0
    0  1 -1  0  0 -1  1  0 -1           |    0  1 -1  0  0 -1  1  0 -1
    0 -1  1  0  0  1 -1  0  1           |    0 -1  1  0  0  1 -1  0  1
   -1  0  1 -1  1  0 -1  0  0           |   -1  0  1 -1  1  0 -1  0  0
    1  0 -1  1 -1  0  1  0  0           |    1  0 -1  1 -1  0  1  0  0
    0 -1  0  1 -1  0  0 -1  1           |    0 -1  0  1 -1  0  0 -1  1
    0  1  0 -1  1  0  0  1 -1           |    0  1  0 -1  1  0  0  1 -1
    1  0 -1  0  0 -1  0  1 -1           |    1  0 -1  0  0 -1  0  1 -1
   -1  0  1  0  0  1  0 -1  1           |   -1  0  1  0  0  1  0 -1  1
    0  1  0  0  0  1  1  0  0           |    0  1  0  0  0  1  1  0  0
    0 -1  0  0  0 -1 -1  0  0           |    0 -1  0  0  0 -1 -1  0  0
    1  0 -1  0  1 -1  0  0 -1           |    1  0 -1  0  1 -1  0  0 -1
   -1  0  1  0 -1  1  0  0  1           |   -1  0  1  0 -1  1  0  0  1
    0 -1  0  0 -1  1  1 -1  0           |    0 -1  0  0 -1  1  1 -1  0
    0  1  0  0  1 -1 -1  1  0           |    0  1  0  0  1 -1 -1  1  0
   -1  0  1 -1  0  0 -1  1  0           |   -1  0  1 -1  0  0 -1  1  0
    1  0 -1  1  0  0  1 -1  0           |    1  0 -1  1  0  0  1 -1  0
    0  1  0  1  0  0  0  0  1           |    0  1  0  1  0  0  0  0  1
    0 -1  0 -1  0  0  0  0 -1           |    0 -1  0 -1  0  0  0  0 -1
    0  0 -1  0  1 -1  1  0 -1           |    0  0 -1  0  1 -1  1  0 -1
    0  0  1  0 -1  1 -1  0  1           |    0  0  1  0 -1  1 -1  0  1
    1 -1  0  0 -1  1  0 -1  0           |    1 -1  0  0 -1  1  0 -1  0
   -1  1  0  0  1 -1  0  1  0           |   -1  1  0  0  1 -1  0  1  0
    0  0  1  1  0  0  0  1  0           |    0  0  1  1  0  0  0  1  0
    0  0 -1 -1  0  0  0 -1  0           |    0  0 -1 -1  0  0  0 -1  0
   -1  1  0 -1  0  0 -1  0  1           |   -1  1  0 -1  0  0 -1  0  1
    1 -1  0  1  0  0  1  0 -1           |    1 -1  0  1  0  0  1  0 -1
    0  0  1  0  1  0  1  0  0           |    0  0  1  0  1  0  1  0  0
    0  0 -1  0 -1  0 -1  0  0           |    0  0 -1  0 -1  0 -1  0  0
    1 -1  0  0 -1  0  0 -1  1           |    1 -1  0  0 -1  0  0 -1  1
   -1  1  0  0  1  0  0  1 -1           |   -1  1  0  0  1  0  0  1 -1
    0  0 -1  1  0 -1  0  1 -1           |    0  0 -1  1  0 -1  0  1 -1
    0  0  1 -1  0  1  0 -1  1           |    0  0  1 -1  0  1  0 -1  1
   -1  1  0 -1  0  1 -1  0  0           |   -1  1  0 -1  0  1 -1  0  0
    1 -1  0  1  0 -1  1  0  0           |    1 -1  0  1  0 -1  1  0  0
  typat:                                |  typat:
    1  1                                |    1  1
  so_psp  :                             |  so_psp  :
    1                                   |    1
  tnons:                                |  tnons:
     0.0000000   0.0000000   0.0000000  |     0.0000000   0.0000000   0.0000000
     0.2500000   0.2500000   0.2500000  |     0.2500000   0.2500000   0.2500000
     0.0000000   0.0000000   0.0000000  |     0.0000000   0.0000000   0.0000000
     0.2500000   0.2500000   0.2500000  |     0.2500000   0.2500000   0.2500000
     0.0000000   0.0000000   0.0000000  |     0.0000000   0.0000000   0.0000000
     0.2500000   0.2500000   0.2500000  |     0.2500000   0.2500000   0.2500000
     0.0000000   0.0000000   0.0000000  |     0.0000000   0.0000000   0.0000000
     0.2500000   0.2500000   0.2500000  |     0.2500000   0.2500000   0.2500000
     0.0000000   0.0000000   0.0000000  |     0.0000000   0.0000000   0.0000000
     0.2500000   0.2500000   0.2500000  |     0.2500000   0.2500000   0.2500000
     0.0000000   0.0000000   0.0000000  |     0.0000000   0.0000000   0.0000000
     0.2500000   0.2500000   0.2500000  |     0.2500000   0.2500000   0.2500000
     0.0000000   0.0000000   0.0000000  |     0.0000000   0.0000000   0.0000000
     0.2500000   0.2500000   0.2500000  |     0.2500000   0.2500000   0.2500000
     0.0000000   0.0000000   0.0000000  |     0.0000000   0.0000000   0.0000000
     0.2500000   0.2500000   0.2500000  |     0.2500000   0.2500000   0.2500000
     0.0000000   0.0000000   0.0000000  |     0.0000000   0.0000000   0.0000000
     0.2500000   0.2500000   0.2500000  |     0.2500000   0.2500000   0.2500000
     0.0000000   0.0000000   0.0000000  |     0.0000000   0.0000000   0.0000000
     0.2500000   0.2500000   0.2500000  |     0.2500000   0.2500000   0.2500000
     0.0000000   0.0000000   0.0000000  |     0.0000000   0.0000000   0.0000000
     0.2500000   0.2500000   0.2500000  |     0.2500000   0.2500000   0.2500000
     0.0000000   0.0000000   0.0000000  |     0.0000000   0.0000000   0.0000000
     0.2500000   0.2500000   0.2500000  |     0.2500000   0.2500000   0.2500000
     0.0000000   0.0000000   0.0000000  |     0.0000000   0.0000000   0.0000000
     0.2500000   0.2500000   0.2500000  |     0.2500000   0.2500000   0.2500000
     0.0000000   0.0000000   0.0000000  |     0.0000000   0.0000000   0.0000000
     0.2500000   0.2500000   0.2500000  |     0.2500000   0.2500000   0.2500000
     0.0000000   0.0000000   0.0000000  |     0.0000000   0.0000000   0.0000000
     0.2500000   0.2500000   0.2500000  |     0.2500000   0.2500000   0.2500000
     0.0000000   0.0000000   0.0000000  |     0.0000000   0.0000000   0.0000000
     0.2500000   0.2500000   0.2500000  |     0.2500000   0.2500000   0.2500000
     0.0000000   0.0000000   0.0000000  |     0.0000000   0.0000000   0.0000000
     0.2500000   0.2500000   0.2500000  |     0.2500000   0.2500000   0.2500000
     0.0000000   0.0000000   0.0000000  |     0.0000000   0.0000000   0.0000000
     0.2500000   0.2500000   0.2500000  |     0.2500000   0.2500000   0.2500000
     0.0000000   0.0000000   0.0000000  |     0.0000000   0.0000000   0.0000000
     0.2500000   0.2500000   0.2500000  |     0.2500000   0.2500000   0.2500000
     0.0000000   0.0000000   0.0000000  |     0.0000000   0.0000000   0.0000000
     0.2500000   0.2500000   0.2500000  |     0.2500000   0.2500000   0.2500000
     0.0000000   0.0000000   0.0000000  |     0.0000000   0.0000000   0.0000000
     0.2500000   0.2500000   0.2500000  |     0.2500000   0.2500000   0.2500000
     0.0000000   0.0000000   0.0000000  |     0.0000000   0.0000000   0.0000000
     0.2500000   0.2500000   0.2500000  |     0.2500000   0.2500000   0.2500000
     0.0000000   0.0000000   0.0000000  |     0.0000000   0.0000000   0.0000000
     0.2500000   0.2500000   0.2500000  |     0.2500000   0.2500000   0.2500000
     0.0000000   0.0000000   0.0000000  |     0.0000000   0.0000000   0.0000000
     0.2500000   0.2500000   0.2500000  |     0.2500000   0.2500000   0.2500000
   znucl:                               |   znucl:
   14.00                                |   14.00
  pseudopotential atom type  1:         |  pseudopotential atom type  1:
  pspso   0 pspxc   1                   |  pspso   0 pspxc   1
  pspdat 940714 pspcod    1 zion   4.0  |  pspdat 940714 pspcod    1 zion   4.0
  xred:                                 |  xred:
     0.0000000   0.0000000   0.0000000  |     0.0000000   0.0000000   0.0000000
     0.2500000   0.2500000   0.2500000  |     0.2500000   0.2500000   0.2500000
 hdr_check:  Density/Potential file is OK for restart of calculation
================================================================================
ioarr: data read from disk file tbs_1o_DS1_DEN

================================================================================

 getcut: wavevector=  0.0000  0.0000  0.0000  ngfft=  20  20  20
         ecut(hartree)=      8.000   => boxcut(ratio)=   2.17426

 ewald : nr and ng are    3 and   11
 vtorho : nnsclo_now= 50, note that nnsclo,dbl_nnsclo,istep=  0 0  1
   1  2  1  2  1  2  1  2  1  2  1  2  1  2  1  2  1  2  1  2  1  2  1  2
   1  2  1  2  1  2  1  2  1  2  1  2  1  2  1  2  1  2  1  2  1  2  1  2
   2  1  2  1  2  1  2  1  2  1  2  1  2  1  2  1  2  1  2  1  2  1  2  1
   2  1  2  1  2  1  2  1  2  1  2  1  2  1  2  1  2  1  2  1  2  1  2  1
 ioarr: writing density data
ioarr: file name is tbs_1o_DS3_DEN
ioarr: data written to disk file tbs_1o_DS3_DEN
================================================================================

 ----iterations are completed or convergence reached----


 outwf: write wavefunction to file tbs_1o_DS3_WFK, with accesswff -1
 leave_test : synchronization done...
 outwf with iomode: -1, cpu:     0.03, wall:     0.04

================================================================================
== DATASET  4 ==================================================================
-   nproc =    1

 mkfilename : getwfk/=0, take file _WFK from output of DATASET   2.

 setmqgrid : COMMENT -
  The number of points "mqgrid" in reciprocal space used for the
  description of the pseudopotentials has been set automatically
  by abinit to :     3001.

 getdim_nloc : deduce lmnmax  =   4, lnmax  =   2,
                      lmnmaxso=   4, lnmaxso=   2.
 Exchange-correlation functional for the present dataset will be:
  LDA: new Teter (4/93) with spin-polarized option - ixc=1
 Citation for XC functional:
  S. Goedecker, M. Teter, J. Huetter, PRB 54, 1703 (1996)

 SCREENING: Calculation of the susceptibility and dielectric matrices

 Based on a program developped by R.W. Godby, V. Olevano, G. Onida, and L. Reining.
 Incorporated in ABINIT by V. Olevano, G.-M. Rignanese, and M. Torrent.
.Using double precision arithmetic ; gwpc =  8

 Unit cell volume ucvol=  2.6663072E+02 bohr^3
 Angles (23,13,12)=  6.00000000E+01  6.00000000E+01  6.00000000E+01 degrees

 getcut: wavevector=  0.0000  0.0000  0.0000  ngfft=  18  18  18
         ecut(hartree)=      7.564   => boxcut(ratio)=   2.01866

 ==== Dense FFT mesh used for densities and potentials ====
  FFT mesh divisions ........................    18   18   18
  Augmented FFT divisions ...................    19   19   18
  FFT algorithm .............................   112
  FFT cache size ............................    16
- pspini: atom type   1  psp file is 14si.pspnc
- pspatm: opening atomic psp file    14si.pspnc
-  Troullier-Martins psp for element  Si        Thu Oct 27 17:31:21 EDT 1994
- 14.00000   4.00000    940714                znucl, zion, pspdat
    1    1    2    2      2001   0.00000      pspcod,pspxc,lmax,lloc,mmax,r2well
    0   5.907  14.692    1   2.0872718        l,e99.0,e99.9,nproj,rcpsp
   0.00000000   0.00000000   0.00000000   0.00000000     rms, ekb1, ekb2, epsatm
    1   2.617   4.181    1   2.0872718        l,e99.0,e99.9,nproj,rcpsp
   0.00000000   0.00000000   0.00000000   0.00000000     rms, ekb1, ekb2, epsatm
    2   0.000   0.000    0   2.0872718        l,e99.0,e99.9,nproj,rcpsp
   0.00000000   0.00000000   0.00000000   0.00000000     rms, ekb1, ekb2, epsatm
    1.80626423934776    0.22824404341771    1.17378968127746   rchrg,fchrg,qchrg
 pspatm: epsatm=    1.43386982
         --- l  ekb(1:nproj) -->
             0    3.287949
             1    1.849886
 pspatm: atomic psp has been read  and splines computed


 ==== Info on pseudopotentials ====
  Norm-conserving pseudopotentials
  Max number of Kleinman-Bylander energies    2
  Number of pseudopotentials ..    1
  Number of types of atoms   ..    1
  Calculation without spin-orbit
  Nonlocal part applied using Legendre polynomials
  Highest angular momentum +1 .......   3
  Max number of (l,n)   components ..   2
  Max number of (l,m,n) components ..   2

 *** Pseudo-Core Charge Info *** 
  Number of radial points for pseudo-core charge .. 2501
  XC core-correction treatment (optnlxccc) ........    1
  Radius for pseudo-core charge for each type ..... 

  - Atom type    1 has pseudo-core radius ..  5.4188

 *** Info on the Q-grid used for form factors in spline form *** 
  Number of q-points for radial functions ffspl ..   3001
  Number of q-points for vlspl ...................   3001
  vlspl is computed in Reciprocal Space
 XC functional for type   1 is   1

 GW calculation type              =    0
 zcut to avoid poles in chi0 [eV] =   0.100000


 setup_screening.F90:208:WARNING
 Using WFK filetbs_1i_DS4_WFK
 DATA TYPE INFORMATION: 
 REAL:      Data type name: REAL(DP) 
            Kind value:      8
            Precision:      15
            Smallest nonnegligible quantity relative to 1:  0.22204460E-15
            Smallest positive number:                       0.22250739-307
            Largest representable number:                   0.17976931+309
 INTEGER:   Data type name: INTEGER(default) 
            Kind value: 4
            Bit size:   32
            Largest representable number: 2147483647
 LOGICAL:   Data type name: LOGICAL 
            Kind value: 4
 CHARACTER: Data type name: CHARACTER             Kind value: 1
  ==== Using MPI-1 specifications ==== 
  MPI-IO support is OFF
  xmpi_tag_ub ................   2147483647
  xmpi_bsize_ch ..............            1
  xmpi_bsize_int .............            4
  xmpi_bsize_sp ..............            4
  xmpi_bsize_dp ..............            8
  xmpi_bsize_spc .............            8
  xmpi_bsize_dpc .............           16
  xmpio_bsize_frm ............            0
  xmpi_address_kind ..........            8
  xmpi_offset_kind ...........            8
  MPI_WTICK ..................    5.7018069026074364E-007

 ++++++++++++++++++++++++++++++++++++++++++++++++++++++++++++++++++++++++++++++

 === Build Information === 
  Version       : 7.4.3
  Build target  : i686_cygwin_gnu4.7
  Build date    : 20131019

 === Compiler Suite === 
  C compiler       : gnu
  CFLAGS           : -mfpmath=sse -msse2 -O2 -Wstrict-aliasing=2 -static
  C++ compiler     : gnu4.7
  CXXFLAGS         : -mfpmath=sse -msse2 -O2 -Wstrict-aliasing=2 -static
  Fortran compiler : gnu4.7
  FCFLAGS          : -mfpmath=sse -msse2 -O2 -ffree-line-length-none -Wstrict-aliasing=2 -static
  FC_LDFLAGS       : 

 === Optimizations === 
  Debug level        : no
  Optimization level : standard
  Architecture       : _

 === MPI === 
  Parallel build : yes
  Parallel I/O   : no
  Time tracing   : no
  GPU support    : no

 === Connectors / Fallbacks === 
  Connectors on : yes
  Fallbacks on  : yes
  DFT flavor    : libxc+atompaw+bigdft+wannier90
  FFT flavor    : none
  LINALG flavor : netlib
  MATH flavor   : none
  TIMER flavor  : abinit

 m_header.F90:1219:ERROR
 Opening tbs_1i_DS4_WFK as old-unformatted
File 'tbs_1i_DS4_WFK' does not exist
  TRIO flavor   : netcdf+etsf_io

 === Experimental features === 
  Bindings            : no
  Exports             : no
  GW double-precision : yes

 === Bazaar branch information === 
  Branch ID : xavier.gonze@uclouvain.be-20131019063522-8wupmx7xtg5stywd
  Revision  : 490
  Committed : 0

 ++++++++++++++++++++++++++++++++++++++++++++++++++++++++++++++++++++++++++++++


 m_header.F90:1219:ERROR
 Opening tbs_1i_DS4_WFK as old-unformatted
File 'tbs_1i_DS4_WFK' does not exist

 leave_new : decision taken to exit ...
