
.Version 7.4.3 of ABINIT 
.(MPI version, prepared for a i686_cygwin_gnu4.7 computer) 

.Copyright (C) 1998-2013 ABINIT group . 
 ABINIT comes with ABSOLUTELY NO WARRANTY.
 It is free software, and you are welcome to redistribute it
 under certain conditions (GNU General Public License,
 see ~abinit/COPYING or http://www.gnu.org/copyleft/gpl.txt).

 ABINIT is a project of the Universite Catholique de Louvain,
 Corning Inc. and other collaborators, see ~abinit/doc/developers/contributors.txt .
 Please read ~abinit/doc/users/acknowledgments.html for suggested
 acknowledgments of the ABINIT effort.
 For more information, see http://www.abinit.org .

.Starting date : Mon  4 Jun 2018.
- ( at 13h16 )
  

 herald :  WARNING -
  The starting date is more than 3 years after the initial release
  of this version of ABINIT, namely Aug 2013.
  This version of ABINIT is not supported anymore.
  Action : please, switch to a more recent version of ABINIT.
- input  file    -> tbs_1.in
- output file    -> tbs_1.out
- root for input  files -> tbs_1i
- root for output files -> tbs_1o


 DATASET    1 : space group Fd -3 m (#227); Bravais cF (face-center cubic)
================================================================================
 Values of the parameters that define the memory need for DATASET  1.
   intxc =         0  ionmov =         0    iscf =         7 xclevel =         1
  lmnmax =         2   lnmax =         2   mband =         5  mffmem =         1
P  mgfft =        20   mkmem =         8 mpssoang=         3     mpw =       303
  mqgrid =      3001   natom =         2    nfft =      8000    nkpt =         8
  nloalg =         4  nspden =         1 nspinor =         1  nsppol =         1
    nsym =        48  n1xccc =      2501  ntypat =         1  occopt =         1
================================================================================
P This job should need less than                       3.076 Mbytes of memory.
  Rough estimation (10% accuracy) of disk space for files :
_ WF disk file :      0.187 Mbytes ; DEN or POT disk file :      0.063 Mbytes.
================================================================================


 DATASET    2 : space group Fd -3 m (#227); Bravais cF (face-center cubic)
================================================================================
 Values of the parameters that define the memory need for DATASET  2.
   intxc =         0  ionmov =         0    iscf =        -2 xclevel =         1
  lmnmax =         2   lnmax =         2   mband =       105  mffmem =         1
P  mgfft =        20   mkmem =         8 mpssoang=         3     mpw =       303
  mqgrid =      3001   natom =         2    nfft =      8000    nkpt =         8
  nloalg =         4  nspden =         1 nspinor =         1  nsppol =         1
    nsym =        48  n1xccc =      2501  ntypat =         1  occopt =         1
================================================================================
P This job should need less than                       6.188 Mbytes of memory.
  Rough estimation (10% accuracy) of disk space for files :
_ WF disk file :      3.886 Mbytes ; DEN or POT disk file :      0.063 Mbytes.
================================================================================


 DATASET    3 : space group Fd -3 m (#227); Bravais cF (face-center cubic)
================================================================================
 Values of the parameters that define the memory need for DATASET  3.
   intxc =         0  ionmov =         0    iscf =        -2 xclevel =         1
  lmnmax =         2   lnmax =         2   mband =        15  mffmem =         1
P  mgfft =        20   mkmem =        64 mpssoang=         3     mpw =       298
  mqgrid =      3001   natom =         2    nfft =      8000    nkpt =        64
  nloalg =         4  nspden =         1 nspinor =         1  nsppol =         1
    nsym =        48  n1xccc =      2501  ntypat =         1  occopt =         1
================================================================================
P This job should need less than                       6.616 Mbytes of memory.
  Rough estimation (10% accuracy) of disk space for files :
_ WF disk file :      4.367 Mbytes ; DEN or POT disk file :      0.063 Mbytes.
================================================================================


 DATASET    4 : space group Fd -3 m (#227); Bravais cF (face-center cubic)
================================================================================
 Values of the parameters that define the memory need for DATASET  4.
   intxc =         0  ionmov =         0    iscf =         7 xclevel =         1
  lmnmax =         2   lnmax =         2   mband =       100  mffmem =         1
P  mgfft =        18   mkmem =         8 mpssoang=         3     mpw =       274
  mqgrid =      3001   natom =         2    nfft =      5832    nkpt =         8
  nloalg =         4  nspden =         1 nspinor =         1  nsppol =         1
    nsym =        48  n1xccc =      2501  ntypat =         1  occopt =         1
================================================================================
P This job should need less than                       5.983 Mbytes of memory.
  Rough estimation (10% accuracy) of disk space for files :
_ WF disk file :      3.347 Mbytes ; DEN or POT disk file :      0.046 Mbytes.
================================================================================

--------------------------------------------------------------------------------
------------- Echo of variables that govern the present computation ------------
--------------------------------------------------------------------------------
-
- outvars: echo of selected default values                                      
-   accesswff0 =  0 , fftalg0 =112 , wfoptalg0 =  0
-
- outvars: echo of global parameters not present in the input file              
-  max_nthreads =    0
-
 -outvars: echo values of preprocessed input variables --------
            acell      1.0217000000E+01  1.0217000000E+01  1.0217000000E+01 Bohr
              amu      2.80855000E+01
      chksymbreak1          1
      chksymbreak2          1
      chksymbreak3          0
      chksymbreak4          1
           diemac      1.20000000E+01
             ecut1     8.00000000E+00 Hartree
             ecut2     8.00000000E+00 Hartree
             ecut3     8.00000000E+00 Hartree
             ecut4     7.56385066E+00 Hartree
          ecuteps1     0.00000000E+00 Hartree
          ecuteps2     0.00000000E+00 Hartree
          ecuteps3     0.00000000E+00 Hartree
          ecuteps4     5.10559920E+00 Hartree
          ecutwfn1     0.00000000E+00 Hartree
          ecutwfn2     0.00000000E+00 Hartree
          ecutwfn3     0.00000000E+00 Hartree
          ecutwfn4     7.56385066E+00 Hartree
           getden1          0
           getden2          1
           getden3          1
           getden4          0
           getwfk1          0
           getwfk2          0
           getwfk3          0
           getwfk4          2
           gwpara1          1
           gwpara2          1
           gwpara3          1
           gwpara4          2
          inclvkb1          1
          inclvkb2          1
          inclvkb3          1
          inclvkb4          2
             iscf1          7
             iscf2         -2
             iscf3         -2
             iscf4          7
           istwfk1       1    0    1    0    0    0    1    0
           istwfk2       1    0    1    0    0    0    1    0
           istwfk4       1    0    1    0    0    0    1    0
                       outvar_i_n : Printing only first  50 k-points.
           jdtset        1    2    3    4
              kpt1     0.00000000E+00  0.00000000E+00  0.00000000E+00
                       2.50000000E-01  0.00000000E+00  0.00000000E+00
                       5.00000000E-01  0.00000000E+00  0.00000000E+00
                       2.50000000E-01  2.50000000E-01  0.00000000E+00
                       5.00000000E-01  2.50000000E-01  0.00000000E+00
                      -2.50000000E-01  2.50000000E-01  0.00000000E+00
                       5.00000000E-01  5.00000000E-01  0.00000000E+00
                      -2.50000000E-01  5.00000000E-01  2.50000000E-01
              kpt2     0.00000000E+00  0.00000000E+00  0.00000000E+00
                       2.50000000E-01  0.00000000E+00  0.00000000E+00
                       5.00000000E-01  0.00000000E+00  0.00000000E+00
                       2.50000000E-01  2.50000000E-01  0.00000000E+00
                       5.00000000E-01  2.50000000E-01  0.00000000E+00
                      -2.50000000E-01  2.50000000E-01  0.00000000E+00
                       5.00000000E-01  5.00000000E-01  0.00000000E+00
                      -2.50000000E-01  5.00000000E-01  2.50000000E-01
              kpt3     2.75000000E-02  5.25000000E-02  7.75000000E-02
                       2.77500000E-01  5.25000000E-02  7.75000000E-02
                      -4.72500000E-01  5.25000000E-02  7.75000000E-02
                      -2.22500000E-01  5.25000000E-02  7.75000000E-02
                       2.75000000E-02  3.02500000E-01  7.75000000E-02
                       2.77500000E-01  3.02500000E-01  7.75000000E-02
                      -4.72500000E-01  3.02500000E-01  7.75000000E-02
                      -2.22500000E-01  3.02500000E-01  7.75000000E-02
                       2.75000000E-02 -4.47500000E-01  7.75000000E-02
                       2.77500000E-01 -4.47500000E-01  7.75000000E-02
                      -4.72500000E-01 -4.47500000E-01  7.75000000E-02
                      -2.22500000E-01 -4.47500000E-01  7.75000000E-02
                       2.75000000E-02 -1.97500000E-01  7.75000000E-02
                       2.77500000E-01 -1.97500000E-01  7.75000000E-02
                      -4.72500000E-01 -1.97500000E-01  7.75000000E-02
                      -2.22500000E-01 -1.97500000E-01  7.75000000E-02
                       2.75000000E-02  5.25000000E-02  3.27500000E-01
                       2.77500000E-01  5.25000000E-02  3.27500000E-01
                      -4.72500000E-01  5.25000000E-02  3.27500000E-01
                      -2.22500000E-01  5.25000000E-02  3.27500000E-01
                       2.75000000E-02  3.02500000E-01  3.27500000E-01
                       2.77500000E-01  3.02500000E-01  3.27500000E-01
                      -4.72500000E-01  3.02500000E-01  3.27500000E-01
                      -2.22500000E-01  3.02500000E-01  3.27500000E-01
                       2.75000000E-02 -4.47500000E-01  3.27500000E-01
                       2.77500000E-01 -4.47500000E-01  3.27500000E-01
                      -4.72500000E-01 -4.47500000E-01  3.27500000E-01
                      -2.22500000E-01 -4.47500000E-01  3.27500000E-01
                       2.75000000E-02 -1.97500000E-01  3.27500000E-01
                       2.77500000E-01 -1.97500000E-01  3.27500000E-01
                      -4.72500000E-01 -1.97500000E-01  3.27500000E-01
                      -2.22500000E-01 -1.97500000E-01  3.27500000E-01
                       2.75000000E-02  5.25000000E-02 -4.22500000E-01
                       2.77500000E-01  5.25000000E-02 -4.22500000E-01
                      -4.72500000E-01  5.25000000E-02 -4.22500000E-01
                      -2.22500000E-01  5.25000000E-02 -4.22500000E-01
                       2.75000000E-02  3.02500000E-01 -4.22500000E-01
                       2.77500000E-01  3.02500000E-01 -4.22500000E-01
                      -4.72500000E-01  3.02500000E-01 -4.22500000E-01
                      -2.22500000E-01  3.02500000E-01 -4.22500000E-01
                       2.75000000E-02 -4.47500000E-01 -4.22500000E-01
                       2.77500000E-01 -4.47500000E-01 -4.22500000E-01
                      -4.72500000E-01 -4.47500000E-01 -4.22500000E-01
                      -2.22500000E-01 -4.47500000E-01 -4.22500000E-01
                       2.75000000E-02 -1.97500000E-01 -4.22500000E-01
                       2.77500000E-01 -1.97500000E-01 -4.22500000E-01
                      -4.72500000E-01 -1.97500000E-01 -4.22500000E-01
                      -2.22500000E-01 -1.97500000E-01 -4.22500000E-01
                       2.75000000E-02  5.25000000E-02 -1.72500000E-01
                       2.77500000E-01  5.25000000E-02 -1.72500000E-01
              kpt4     0.00000000E+00  0.00000000E+00  0.00000000E+00
                       2.50000000E-01  0.00000000E+00  0.00000000E+00
                       5.00000000E-01  0.00000000E+00  0.00000000E+00
                       2.50000000E-01  2.50000000E-01  0.00000000E+00
                       5.00000000E-01  2.50000000E-01  0.00000000E+00
                      -2.50000000E-01  2.50000000E-01  0.00000000E+00
                       5.00000000E-01  5.00000000E-01  0.00000000E+00
                      -2.50000000E-01  5.00000000E-01  2.50000000E-01
                       outvar_i_n : Printing only first  50 k-points.
         kptrlatt        4    0    0      0    4    0      0    0    4
          kptrlen      2.88980399E+01
P           mkmem1          8
P           mkmem2          8
P           mkmem3         64
P           mkmem4          8
            natom           2
            nband1          5
            nband2        105
            nband3         15
            nband4        100
           nbdbuf1          0
           nbdbuf2          5
           nbdbuf3          5
           nbdbuf4          0
           ndtset           4
          nfreqim1         -1
          nfreqim2         -1
          nfreqim3         -1
          nfreqim4          0
          nfreqre1         -1
          nfreqre2         -1
          nfreqre3         -1
          nfreqre4          1
            ngfft1         20      20      20
            ngfft2         20      20      20
            ngfft3         20      20      20
            ngfft4         18      18      18
             nkpt1          8
             nkpt2          8
             nkpt3         64
             nkpt4          8
           npweps1          0
           npweps2          0
           npweps3          0
           npweps4        169
           npwwfn1          0
           npwwfn2          0
           npwwfn3          0
           npwwfn4        283
           nsheps1          0
           nsheps2          0
           nsheps3          0
           nsheps4         12
            nstep          50
             nsym          48
           ntypat           1
              occ1     2.000000  2.000000  2.000000  2.000000  0.000000
              occ4     2.000000  2.000000  2.000000  2.000000  0.000000  0.000000
                       0.000000  0.000000  0.000000  0.000000  0.000000  0.000000
                       0.000000  0.000000  0.000000  0.000000  0.000000  0.000000
                       0.000000  0.000000  0.000000  0.000000  0.000000  0.000000
                       0.000000  0.000000  0.000000  0.000000  0.000000  0.000000
                       0.000000  0.000000  0.000000  0.000000  0.000000  0.000000
                       0.000000  0.000000  0.000000  0.000000  0.000000  0.000000
                       0.000000  0.000000  0.000000  0.000000  0.000000  0.000000
                       0.000000  0.000000  0.000000  0.000000  0.000000  0.000000
                       0.000000  0.000000  0.000000  0.000000  0.000000  0.000000
                       0.000000  0.000000  0.000000  0.000000  0.000000  0.000000
                       0.000000  0.000000  0.000000  0.000000  0.000000  0.000000
                       0.000000  0.000000  0.000000  0.000000  0.000000  0.000000
                       0.000000  0.000000  0.000000  0.000000  0.000000  0.000000
                       0.000000  0.000000  0.000000  0.000000  0.000000  0.000000
                       0.000000  0.000000  0.000000  0.000000  0.000000  0.000000
                       0.000000  0.000000  0.000000  0.000000
        optdriver1          0
        optdriver2          0
        optdriver3          0
        optdriver4          3
            rprim      0.0000000000E+00  5.0000000000E-01  5.0000000000E-01
                       5.0000000000E-01  0.0000000000E+00  5.0000000000E-01
                       5.0000000000E-01  5.0000000000E-01  0.0000000000E+00
           shiftk1     0.00000000E+00  0.00000000E+00  0.00000000E+00
           shiftk2     0.00000000E+00  0.00000000E+00  0.00000000E+00
           shiftk3     1.10000000E-01  2.10000000E-01  3.10000000E-01
           shiftk4     0.00000000E+00  0.00000000E+00  0.00000000E+00
          spgroup         227
           symchi1       0
           symchi2       0
           symchi3       0
           symchi4       1
           symrel      1  0  0   0  1  0   0  0  1      -1  0  0   0 -1  0   0  0 -1
                       0 -1  1   0 -1  0   1 -1  0       0  1 -1   0  1  0  -1  1  0
                      -1  0  0  -1  0  1  -1  1  0       1  0  0   1  0 -1   1 -1  0
                       0  1 -1   1  0 -1   0  0 -1       0 -1  1  -1  0  1   0  0  1
                      -1  0  0  -1  1  0  -1  0  1       1  0  0   1 -1  0   1  0 -1
                       0 -1  1   1 -1  0   0 -1  0       0  1 -1  -1  1  0   0  1  0
                       1  0  0   0  0  1   0  1  0      -1  0  0   0  0 -1   0 -1  0
                       0  1 -1   0  0 -1   1  0 -1       0 -1  1   0  0  1  -1  0  1
                      -1  0  1  -1  1  0  -1  0  0       1  0 -1   1 -1  0   1  0  0
                       0 -1  0   1 -1  0   0 -1  1       0  1  0  -1  1  0   0  1 -1
                       1  0 -1   0  0 -1   0  1 -1      -1  0  1   0  0  1   0 -1  1
                       0  1  0   0  0  1   1  0  0       0 -1  0   0  0 -1  -1  0  0
                       1  0 -1   0  1 -1   0  0 -1      -1  0  1   0 -1  1   0  0  1
                       0 -1  0   0 -1  1   1 -1  0       0  1  0   0  1 -1  -1  1  0
                      -1  0  1  -1  0  0  -1  1  0       1  0 -1   1  0  0   1 -1  0
                       0  1  0   1  0  0   0  0  1       0 -1  0  -1  0  0   0  0 -1
                       0  0 -1   0  1 -1   1  0 -1       0  0  1   0 -1  1  -1  0  1
                       1 -1  0   0 -1  1   0 -1  0      -1  1  0   0  1 -1   0  1  0
                       0  0  1   1  0  0   0  1  0       0  0 -1  -1  0  0   0 -1  0
                      -1  1  0  -1  0  0  -1  0  1       1 -1  0   1  0  0   1  0 -1
                       0  0  1   0  1  0   1  0  0       0  0 -1   0 -1  0  -1  0  0
                       1 -1  0   0 -1  0   0 -1  1      -1  1  0   0  1  0   0  1 -1
                       0  0 -1   1  0 -1   0  1 -1       0  0  1  -1  0  1   0 -1  1
                      -1  1  0  -1  0  1  -1  0  0       1 -1  0   1  0 -1   1  0  0
            tnons      0.0000000  0.0000000  0.0000000     0.2500000  0.2500000  0.2500000
                       0.0000000  0.0000000  0.0000000     0.2500000  0.2500000  0.2500000
                       0.0000000  0.0000000  0.0000000     0.2500000  0.2500000  0.2500000
                       0.0000000  0.0000000  0.0000000     0.2500000  0.2500000  0.2500000
                       0.0000000  0.0000000  0.0000000     0.2500000  0.2500000  0.2500000
                       0.0000000  0.0000000  0.0000000     0.2500000  0.2500000  0.2500000
                       0.0000000  0.0000000  0.0000000     0.2500000  0.2500000  0.2500000
                       0.0000000  0.0000000  0.0000000     0.2500000  0.2500000  0.2500000
                       0.0000000  0.0000000  0.0000000     0.2500000  0.2500000  0.2500000
                       0.0000000  0.0000000  0.0000000     0.2500000  0.2500000  0.2500000
                       0.0000000  0.0000000  0.0000000     0.2500000  0.2500000  0.2500000
                       0.0000000  0.0000000  0.0000000     0.2500000  0.2500000  0.2500000
                       0.0000000  0.0000000  0.0000000     0.2500000  0.2500000  0.2500000
                       0.0000000  0.0000000  0.0000000     0.2500000  0.2500000  0.2500000
                       0.0000000  0.0000000  0.0000000     0.2500000  0.2500000  0.2500000
                       0.0000000  0.0000000  0.0000000     0.2500000  0.2500000  0.2500000
                       0.0000000  0.0000000  0.0000000     0.2500000  0.2500000  0.2500000
                       0.0000000  0.0000000  0.0000000     0.2500000  0.2500000  0.2500000
                       0.0000000  0.0000000  0.0000000     0.2500000  0.2500000  0.2500000
                       0.0000000  0.0000000  0.0000000     0.2500000  0.2500000  0.2500000
                       0.0000000  0.0000000  0.0000000     0.2500000  0.2500000  0.2500000
                       0.0000000  0.0000000  0.0000000     0.2500000  0.2500000  0.2500000
                       0.0000000  0.0000000  0.0000000     0.2500000  0.2500000  0.2500000
                       0.0000000  0.0000000  0.0000000     0.2500000  0.2500000  0.2500000
           tolvrs1     1.00000000E-08
           tolvrs2     0.00000000E+00
           tolvrs3     0.00000000E+00
           tolvrs4     0.00000000E+00
           tolwfr1     0.00000000E+00
           tolwfr2     1.00000000E-08
           tolwfr3     1.00000000E-08
           tolwfr4     0.00000000E+00
            typat      1  1
              wtk1       0.01563    0.12500    0.06250    0.09375    0.37500    0.18750
                         0.04688    0.09375
              wtk2       0.01563    0.12500    0.06250    0.09375    0.37500    0.18750
                         0.04688    0.09375
              wtk3       0.01563    0.01563    0.01563    0.01563    0.01563    0.01563
                         0.01563    0.01563    0.01563    0.01563    0.01563    0.01563
                         0.01563    0.01563    0.01563    0.01563    0.01563    0.01563
                         0.01563    0.01563    0.01563    0.01563    0.01563    0.01563
                         0.01563    0.01563    0.01563    0.01563    0.01563    0.01563
                         0.01563    0.01563    0.01563    0.01563    0.01563    0.01563
                         0.01563    0.01563    0.01563    0.01563    0.01563    0.01563
                         0.01563    0.01563    0.01563    0.01563    0.01563    0.01563
                         0.01563    0.01563
              wtk4       0.01563    0.12500    0.06250    0.09375    0.37500    0.18750
                         0.04688    0.09375
                       outvars : Printing only first  50 k-points.
           xangst      0.0000000000E+00  0.0000000000E+00  0.0000000000E+00
                       1.3516508850E+00  1.3516508850E+00  1.3516508850E+00
            xcart      0.0000000000E+00  0.0000000000E+00  0.0000000000E+00
                       2.5542500000E+00  2.5542500000E+00  2.5542500000E+00
             xred      0.0000000000E+00  0.0000000000E+00  0.0000000000E+00
                       2.5000000000E-01  2.5000000000E-01  2.5000000000E-01
            znucl       14.00000

================================================================================

 chkinp: Checking input parameters for consistency, jdtset=   1.

 chkinp: Checking input parameters for consistency, jdtset=   2.

 chkinp: Checking input parameters for consistency, jdtset=   3.

 chkinp: Checking input parameters for consistency, jdtset=   4.

================================================================================
== DATASET  1 ==================================================================
-   nproc =    1

 Exchange-correlation functional for the present dataset will be:
  LDA: new Teter (4/93) with spin-polarized option - ixc=1
 Citation for XC functional:
  S. Goedecker, M. Teter, J. Huetter, PRB 54, 1703 (1996)

 Real(R)+Recip(G) space primitive vectors, cartesian coordinates (Bohr,Bohr^-1):
 R(1)=  0.0000000  5.1085000  5.1085000  G(1)= -0.0978761  0.0978761  0.0978761
 R(2)=  5.1085000  0.0000000  5.1085000  G(2)=  0.0978761 -0.0978761  0.0978761
 R(3)=  5.1085000  5.1085000  0.0000000  G(3)=  0.0978761  0.0978761 -0.0978761
 Unit cell volume ucvol=  2.6663072E+02 bohr^3
 Angles (23,13,12)=  6.00000000E+01  6.00000000E+01  6.00000000E+01 degrees

 getcut: wavevector=  0.0000  0.0000  0.0000  ngfft=  20  20  20
         ecut(hartree)=      8.000   => boxcut(ratio)=   2.17426

--- Pseudopotential description ------------------------------------------------
- pspini: atom type   1  psp file is 14si.pspnc
- pspatm: opening atomic psp file    14si.pspnc
-  Troullier-Martins psp for element  Si        Thu Oct 27 17:31:21 EDT 1994
- 14.00000   4.00000    940714                znucl, zion, pspdat
    1    1    2    2      2001   0.00000      pspcod,pspxc,lmax,lloc,mmax,r2well
    0   5.907  14.692    1   2.0872718        l,e99.0,e99.9,nproj,rcpsp
   0.00000000   0.00000000   0.00000000   0.00000000     rms, ekb1, ekb2, epsatm
    1   2.617   4.181    1   2.0872718        l,e99.0,e99.9,nproj,rcpsp
   0.00000000   0.00000000   0.00000000   0.00000000     rms, ekb1, ekb2, epsatm
    2   0.000   0.000    0   2.0872718        l,e99.0,e99.9,nproj,rcpsp
   0.00000000   0.00000000   0.00000000   0.00000000     rms, ekb1, ekb2, epsatm
    1.80626423934776    0.22824404341771    1.17378968127746   rchrg,fchrg,qchrg
 pspatm: epsatm=    1.43386982
         --- l  ekb(1:nproj) -->
             0    3.287949
             1    1.849886
 pspatm: atomic psp has been read  and splines computed

   2.29419171E+01                                ecore*ucvol(ha*bohr**3)
--------------------------------------------------------------------------------

P newkpt: treating      5 bands with npw=     283 for ikpt=   1 by node    0
P newkpt: treating      5 bands with npw=     296 for ikpt=   2 by node    0
P newkpt: treating      5 bands with npw=     272 for ikpt=   3 by node    0
P newkpt: treating      5 bands with npw=     303 for ikpt=   4 by node    0
P newkpt: treating      5 bands with npw=     290 for ikpt=   5 by node    0
P newkpt: treating      5 bands with npw=     283 for ikpt=   6 by node    0
P newkpt: treating      5 bands with npw=     302 for ikpt=   7 by node    0
P newkpt: treating      5 bands with npw=     280 for ikpt=   8 by node    0

_setup2: Arith. and geom. avg. npw (full set) are     289.047     288.933

================================================================================

     iter   Etot(hartree)      deltaE(h)  residm     vres2
 ETOT  1  -8.8602113889050    -8.860E+00 2.603E-03 6.106E+00
 ETOT  2  -8.8652250104725    -5.014E-03 1.247E-06 1.901E-01
 ETOT  3  -8.8653196922990    -9.468E-05 3.202E-06 2.857E-03
 ETOT  4  -8.8653204968648    -8.046E-07 2.542E-08 1.147E-05
 ETOT  5  -8.8653205025982    -5.733E-09 8.634E-10 7.646E-08
 ETOT  6  -8.8653205026545    -5.622E-11 2.946E-12 1.814E-10

 At SCF step    6       vres2   =  1.81E-10 < tolvrs=  1.00E-08 =>converged.

 Cartesian components of stress tensor (hartree/bohr^3)
  sigma(1 1)=  8.97902327E-06  sigma(3 2)=  0.00000000E+00
  sigma(2 2)=  8.97902327E-06  sigma(3 1)=  0.00000000E+00
  sigma(3 3)=  8.97902327E-06  sigma(2 1)=  0.00000000E+00

================================================================================

 ----iterations are completed or convergence reached----

 Mean square residual over all n,k,spin=   4.3079E-13; max=  2.9465E-12
   0.0000  0.0000  0.0000    1  2.94645E-12 kpt; spin; max resid(k); each band:
  5.29E-14 3.27E-14 9.84E-15 1.80E-14 2.95E-12
   0.2500  0.0000  0.0000    1  1.18802E-12 kpt; spin; max resid(k); each band:
  5.14E-13 6.85E-13 2.51E-14 2.51E-14 1.19E-12
   0.5000  0.0000  0.0000    1  1.33927E-12 kpt; spin; max resid(k); each band:
  6.69E-15 1.32E-12 3.73E-15 3.73E-15 1.34E-12
   0.2500  0.2500  0.0000    1  7.20587E-13 kpt; spin; max resid(k); each band:
  7.21E-13 7.30E-15 1.23E-14 1.23E-14 7.20E-13
   0.5000  0.2500  0.0000    1  5.67665E-13 kpt; spin; max resid(k); each band:
  3.66E-13 4.53E-13 2.57E-13 9.20E-15 5.68E-13
  -0.2500  0.2500  0.0000    1  5.70736E-13 kpt; spin; max resid(k); each band:
  1.87E-13 5.23E-13 1.97E-13 6.87E-15 5.71E-13
   0.5000  0.5000  0.0000    1  5.94456E-13 kpt; spin; max resid(k); each band:
  3.53E-14 5.44E-13 6.90E-15 6.90E-15 5.94E-13
  -0.2500  0.5000  0.2500    1  1.64817E-12 kpt; spin; max resid(k); each band:
  2.35E-14 2.35E-14 1.06E-12 5.12E-13 1.65E-12
 reduced coordinates (array xred) for    2 atoms
       0.000000000000      0.000000000000      0.000000000000
       0.250000000000      0.250000000000      0.250000000000
 rms dE/dt=  0.0000E+00; max dE/dt=  0.0000E+00; dE/dt below (all hartree)
    1       0.000000000000      0.000000000000      0.000000000000
    2       0.000000000000      0.000000000000      0.000000000000

 cartesian coordinates (angstrom) at end:
    1      0.00000000000000     0.00000000000000     0.00000000000000
    2      1.35165088504101     1.35165088504101     1.35165088504101

 cartesian forces (hartree/bohr) at end:
    1     -0.00000000000000    -0.00000000000000    -0.00000000000000
    2     -0.00000000000000    -0.00000000000000    -0.00000000000000
 frms,max,avg= 0.0000000E+00 0.0000000E+00   0.000E+00  0.000E+00  0.000E+00 h/b

 cartesian forces (eV/Angstrom) at end:
    1     -0.00000000000000    -0.00000000000000    -0.00000000000000
    2     -0.00000000000000    -0.00000000000000    -0.00000000000000
 frms,max,avg= 0.0000000E+00 0.0000000E+00   0.000E+00  0.000E+00  0.000E+00 e/A
 length scales= 10.217000000000 10.217000000000 10.217000000000 bohr
              =  5.406603540164  5.406603540164  5.406603540164 angstroms
 prteigrs : about to open file tbs_1o_DS1_EIG
 Fermi (or HOMO) energy (hartree) =   0.21899   Average Vxc (hartree)=  -0.35396
 Eigenvalues (hartree) for nkpt=   8  k points:
 kpt#   1, nband=  5, wtk=  0.01563, kpt=  0.0000  0.0000  0.0000 (reduced coord)
  -0.22563   0.21899   0.21899   0.21899   0.31120
 kpt#   2, nband=  5, wtk=  0.12500, kpt=  0.2500  0.0000  0.0000 (reduced coord)
  -0.19573   0.07221   0.19021   0.19021   0.29027
 kpt#   3, nband=  5, wtk=  0.06250, kpt=  0.5000  0.0000  0.0000 (reduced coord)
  -0.13794  -0.04161   0.17394   0.17394   0.27243
 kpt#   4, nband=  5, wtk=  0.09375, kpt=  0.2500  0.2500  0.0000 (reduced coord)
  -0.18523   0.08887   0.14751   0.14751   0.25598
 kpt#   5, nband=  5, wtk=  0.37500, kpt=  0.5000  0.2500  0.0000 (reduced coord)
  -0.12386  -0.01818   0.08544   0.13585   0.27036
 kpt#   6, nband=  5, wtk=  0.18750, kpt= -0.2500  0.2500  0.0000 (reduced coord)
  -0.14913   0.01562   0.07691   0.16892   0.30556
 kpt#   7, nband=  5, wtk=  0.04688, kpt=  0.5000  0.5000  0.0000 (reduced coord)
  -0.07091  -0.07091   0.11156   0.11156   0.23972
 kpt#   8, nband=  5, wtk=  0.09375, kpt= -0.2500  0.5000  0.2500 (reduced coord)
  -0.06442  -0.06442   0.07299   0.07299   0.37348
 Total charge density [el/Bohr^3]
,     Maximum=    8.6900E-02  at reduced coord.    0.1000    0.1000    0.7000
,Next maximum=    8.6900E-02  at reduced coord.    0.1500    0.1500    0.5500
,     Minimum=    3.2324E-03  at reduced coord.    0.5000    0.5000    0.5000
,Next minimum=    3.2324E-03  at reduced coord.    0.7500    0.7500    0.7500
,  Integrated=    8.0000E+00

--------------------------------------------------------------------------------
 Components of total free energy (in Hartree) :

    Kinetic energy  =  3.04995415501959E+00
    Hartree energy  =  5.49441706560666E-01
    XC energy       = -3.54334111255881E+00
    Ewald energy    = -8.43581958561899E+00
    PspCore energy  =  8.60437873148613E-02
    Loc. psp. energy= -2.44630486525179E+00
    NL   psp  energy=  1.87470541188000E+00
    >>>>>>>>> Etotal= -8.86532050265447E+00

 Other information on the energy :
    Total energy(eV)= -2.41237639239659E+02 ; Band energy (Ha)=   2.4838974932E-01
--------------------------------------------------------------------------------

 Cartesian components of stress tensor (hartree/bohr^3)
  sigma(1 1)=  8.97902327E-06  sigma(3 2)=  0.00000000E+00
  sigma(2 2)=  8.97902327E-06  sigma(3 1)=  0.00000000E+00
  sigma(3 3)=  8.97902327E-06  sigma(2 1)=  0.00000000E+00

-Cartesian components of stress tensor (GPa)         [Pressure= -2.6417E-01 GPa]
- sigma(1 1)=  2.64171941E-01  sigma(3 2)=  0.00000000E+00
- sigma(2 2)=  2.64171941E-01  sigma(3 1)=  0.00000000E+00
- sigma(3 3)=  2.64171941E-01  sigma(2 1)=  0.00000000E+00

================================================================================
== DATASET  2 ==================================================================
-   nproc =    1

 mkfilename : getden/=0, take file _DEN from output of DATASET   1.

 Exchange-correlation functional for the present dataset will be:
  LDA: new Teter (4/93) with spin-polarized option - ixc=1
 Citation for XC functional:
  S. Goedecker, M. Teter, J. Huetter, PRB 54, 1703 (1996)

 Real(R)+Recip(G) space primitive vectors, cartesian coordinates (Bohr,Bohr^-1):
 R(1)=  0.0000000  5.1085000  5.1085000  G(1)= -0.0978761  0.0978761  0.0978761
 R(2)=  5.1085000  0.0000000  5.1085000  G(2)=  0.0978761 -0.0978761  0.0978761
 R(3)=  5.1085000  5.1085000  0.0000000  G(3)=  0.0978761  0.0978761 -0.0978761
 Unit cell volume ucvol=  2.6663072E+02 bohr^3
 Angles (23,13,12)=  6.00000000E+01  6.00000000E+01  6.00000000E+01 degrees

 getcut: wavevector=  0.0000  0.0000  0.0000  ngfft=  20  20  20
         ecut(hartree)=      8.000   => boxcut(ratio)=   2.17426
--------------------------------------------------------------------------------

P newkpt: treating    105 bands with npw=     283 for ikpt=   1 by node    0
P newkpt: treating    105 bands with npw=     296 for ikpt=   2 by node    0
P newkpt: treating    105 bands with npw=     272 for ikpt=   3 by node    0
P newkpt: treating    105 bands with npw=     303 for ikpt=   4 by node    0
P newkpt: treating    105 bands with npw=     290 for ikpt=   5 by node    0
P newkpt: treating    105 bands with npw=     283 for ikpt=   6 by node    0
P newkpt: treating    105 bands with npw=     302 for ikpt=   7 by node    0
P newkpt: treating    105 bands with npw=     280 for ikpt=   8 by node    0


================================================================================
 prteigrs : about to open file tbs_1o_DS2_EIG
 Non-SCF case, kpt    1 (  0.00000  0.00000  0.00000), residuals and eigenvalues=
  1.09E-10  1.05E-10  4.62E-09  7.57E-09  1.65E-09  4.99E-09  8.90E-09  6.05E-11
  4.29E-11  1.28E-10  1.51E-10  5.87E-11  1.11E-10  1.68E-10  1.81E-09  3.32E-10
  8.33E-10  9.11E-10  2.16E-10  4.79E-10  9.61E-11  1.53E-10  2.69E-10  8.03E-11
  2.51E-09  9.02E-09  8.75E-09  2.55E-10  5.47E-10  1.42E-09  6.35E-10  1.19E-09
  2.76E-10  4.18E-10  9.41E-11  1.26E-10  5.87E-10  3.82E-10  2.36E-10  2.98E-10
  8.44E-09  4.04E-10  1.79E-10  2.46E-10  8.51E-09  1.59E-10  3.43E-10  9.32E-09
  1.25E-10  1.84E-10  6.97E-09  6.37E-10  3.44E-10  7.74E-10  1.83E-09  1.32E-10
  3.06E-10  7.51E-10  4.36E-10  6.74E-10  4.71E-09  3.01E-09  1.96E-09  3.41E-09
  9.45E-09  8.37E-09  2.19E-09  3.85E-09  7.40E-09  2.62E-09  9.36E-09  1.30E-09
  3.61E-09  7.76E-09  3.56E-09  3.32E-09  5.49E-09  8.50E-09  3.10E-09  4.90E-09
  8.26E-09  2.66E-09  3.54E-09  4.79E-09  3.29E-09  4.81E-09  6.95E-09  2.13E-09
  5.94E-09  7.21E-09  8.84E-09  2.27E-09  4.87E-09  5.23E-09  3.33E-09  1.96E-09
  5.30E-09  5.23E-09  8.94E-09  8.41E-09  1.91E-08  7.22E-09  6.22E-09  3.84E-07
  9.79E-09
 -2.2563E-01  2.1899E-01  2.1899E-01  2.1899E-01  3.1120E-01  3.1120E-01
  3.1120E-01  3.3856E-01  4.9984E-01  5.0855E-01  5.0855E-01  6.2896E-01
  6.2896E-01  6.2896E-01  7.7142E-01  1.0776E+00  1.0776E+00  1.0776E+00
  1.1201E+00  1.1201E+00  1.1549E+00  1.1549E+00  1.1549E+00  1.3056E+00
  1.3056E+00  1.3056E+00  1.5017E+00  1.5232E+00  1.5232E+00  1.5232E+00
  1.6652E+00  1.6652E+00  1.7242E+00  1.7242E+00  1.7428E+00  1.7428E+00
  1.7428E+00  1.7996E+00  1.8399E+00  1.8399E+00  1.8399E+00  1.8544E+00
  1.8814E+00  1.8814E+00  1.8814E+00  1.8905E+00  1.8905E+00  1.8905E+00
  1.9378E+00  1.9378E+00  1.9378E+00  2.0838E+00  2.1190E+00  2.1190E+00
  2.1190E+00  2.1222E+00  2.1222E+00  2.1222E+00  2.1396E+00  2.6874E+00
  2.6874E+00  2.6901E+00  2.7936E+00  2.7936E+00  2.7936E+00  2.7983E+00
  2.9204E+00  2.9204E+00  2.9204E+00  2.9446E+00  2.9446E+00  2.9469E+00
  2.9469E+00  2.9469E+00  3.0306E+00  3.0984E+00  3.0984E+00  3.0984E+00
  3.2449E+00  3.2449E+00  3.2449E+00  3.2995E+00  3.2995E+00  3.2995E+00
  3.3020E+00  3.3020E+00  3.3020E+00  3.3088E+00  3.3088E+00  3.4392E+00
  3.4392E+00  3.4577E+00  3.4577E+00  3.4577E+00  3.4753E+00  3.5702E+00
  3.5702E+00  3.5702E+00  3.6119E+00  3.6119E+00  3.6119E+00  3.6187E+00
  3.6187E+00  3.6187E+00  3.6400E+00
  prteigrs : nnsclo,ikpt=   50    1 max resid (incl. the buffer)=  3.83635E-07
 Non-SCF case, kpt    2 (  0.25000  0.00000  0.00000), residuals and eigenvalues=
  1.77E-10  2.45E-10  1.27E-10  6.29E-09  4.42E-10  4.03E-10  8.52E-09  1.77E-10
  2.63E-10  1.35E-09  8.48E-11  2.72E-10  3.50E-10  8.24E-10  7.70E-10  3.22E-10
  1.34E-09  1.85E-10  7.32E-10  2.55E-09  5.58E-10  1.36E-09  3.17E-09  1.31E-09
  4.90E-10  3.63E-10  1.64E-09  6.62E-10  4.08E-09  4.63E-10  2.18E-09  2.35E-09
  2.06E-09  2.18E-10  1.62E-09  4.57E-10  5.73E-10  9.04E-10  2.14E-09  2.84E-09
  8.59E-10  2.67E-09  5.37E-10  3.28E-09  5.57E-09  6.87E-10  1.28E-09  3.49E-09
  2.28E-09  1.39E-09  4.64E-09  3.07E-09  1.55E-09  5.02E-10  1.58E-09  1.95E-09
  6.67E-10  5.71E-09  9.32E-10  5.97E-09  3.41E-09  8.48E-09  1.02E-09  6.48E-09
  7.03E-09  2.00E-09  5.21E-09  3.05E-09  9.98E-10  3.59E-09  7.44E-10  1.10E-09
  5.25E-09  3.68E-09  9.70E-09  1.73E-09  4.36E-09  4.22E-09  5.32E-09  3.80E-09
  2.96E-09  2.73E-09  5.31E-09  7.85E-10  1.92E-09  4.43E-09  3.76E-09  3.48E-09
  8.07E-09  2.92E-09  4.48E-09  5.70E-09  3.46E-09  3.28E-09  9.16E-09  2.33E-09
  3.82E-09  3.71E-09  7.94E-09  5.15E-09  7.99E-09  1.12E-08  3.91E-08  1.56E-06
  1.97E-04
 -1.9573E-01  7.2215E-02  1.9021E-01  1.9021E-01  2.9027E-01  3.4634E-01
  3.4634E-01  4.6820E-01  4.8535E-01  4.8535E-01  5.4079E-01  6.4689E-01
  7.5962E-01  7.5962E-01  8.7634E-01  8.7836E-01  8.7836E-01  9.4638E-01
  1.1140E+00  1.1140E+00  1.1933E+00  1.1933E+00  1.2472E+00  1.2829E+00
  1.3323E+00  1.3965E+00  1.3965E+00  1.4588E+00  1.4588E+00  1.4954E+00
  1.4954E+00  1.5927E+00  1.6260E+00  1.6352E+00  1.6352E+00  1.6782E+00
  1.6945E+00  1.7390E+00  1.7390E+00  1.7685E+00  1.8370E+00  1.8370E+00
  1.8450E+00  1.9550E+00  1.9550E+00  2.0446E+00  2.0446E+00  2.0458E+00
  2.0544E+00  2.1072E+00  2.1072E+00  2.1311E+00  2.2278E+00  2.3234E+00
  2.3387E+00  2.3387E+00  2.3518E+00  2.3518E+00  2.4302E+00  2.4302E+00
  2.4503E+00  2.4558E+00  2.5413E+00  2.5413E+00  2.6251E+00  2.6977E+00
  2.6977E+00  2.7010E+00  2.8440E+00  2.8440E+00  2.9065E+00  2.9468E+00
  3.0159E+00  3.0345E+00  3.0345E+00  3.0520E+00  3.0520E+00  3.1077E+00
  3.1336E+00  3.1336E+00  3.1457E+00  3.1619E+00  3.1619E+00  3.2144E+00
  3.2453E+00  3.2453E+00  3.3301E+00  3.3398E+00  3.3398E+00  3.3449E+00
  3.4047E+00  3.4047E+00  3.4130E+00  3.5288E+00  3.5288E+00  3.5439E+00
  3.5439E+00  3.5626E+00  3.5664E+00  3.6369E+00  3.6369E+00  3.6517E+00
  3.6961E+00  3.6961E+00  3.7507E+00
  prteigrs : nnsclo,ikpt=   50    2 max resid (incl. the buffer)=  1.96966E-04
 Non-SCF case, kpt    3 (  0.50000  0.00000  0.00000), residuals and eigenvalues=
  8.26E-11  2.41E-09  2.74E-09  9.51E-09  3.36E-11  3.69E-11  9.78E-09  2.80E-09
  5.73E-11  2.68E-10  5.87E-09  5.23E-11  7.60E-09  6.00E-11  1.76E-10  1.30E-10
  3.34E-11  2.14E-10  1.10E-10  7.90E-10  2.09E-10  9.93E-11  1.02E-09  1.25E-10
  3.98E-10  4.83E-09  1.17E-10  1.78E-10  4.36E-10  4.06E-10  2.38E-10  5.46E-10
  5.78E-11  1.11E-10  4.46E-10  7.00E-10  5.37E-10  2.47E-10  1.25E-09  4.00E-10
  1.09E-09  1.67E-09  3.35E-09  1.96E-10  2.51E-09  1.59E-09  1.23E-09  2.34E-09
  3.99E-10  2.75E-10  3.76E-09  2.01E-09  1.33E-09  3.49E-09  5.67E-10  3.10E-10
  5.39E-09  7.32E-10  6.60E-10  4.61E-09  2.09E-10  9.55E-10  1.27E-09  3.80E-10
  5.66E-09  1.79E-09  5.82E-10  1.15E-09  3.79E-10  7.99E-10  1.00E-09  2.03E-09
  3.98E-10  1.11E-09  9.60E-10  1.73E-09  3.43E-09  8.35E-10  2.96E-09  1.47E-09
  7.00E-09  7.92E-09  3.24E-09  4.66E-09  5.59E-09  9.10E-09  8.46E-09  1.75E-09
  3.96E-09  7.67E-09  7.46E-09  2.28E-09  5.72E-09  9.53E-09  9.85E-09  7.87E-09
  5.33E-09  5.35E-09  5.88E-09  7.27E-09  1.63E-08  4.81E-07  5.00E-06  1.74E-05
  7.07E-06
 -1.3794E-01 -4.1615E-02  1.7394E-01  1.7394E-01  2.7243E-01  3.4008E-01
  3.4008E-01  4.9456E-01  6.1385E-01  6.1385E-01  6.2982E-01  6.3673E-01
  6.3673E-01  6.8658E-01  9.3111E-01  9.4947E-01  1.0216E+00  1.0216E+00
  1.0291E+00  1.0291E+00  1.1623E+00  1.2014E+00  1.2014E+00  1.2258E+00
  1.2258E+00  1.2527E+00  1.3740E+00  1.4086E+00  1.4086E+00  1.4165E+00
  1.4367E+00  1.4367E+00  1.5344E+00  1.5676E+00  1.7346E+00  1.7346E+00
  1.7646E+00  1.7868E+00  1.7868E+00  1.8072E+00  1.9033E+00  1.9708E+00
  1.9708E+00  2.0193E+00  2.0193E+00  2.0566E+00  2.1752E+00  2.1752E+00
  2.1878E+00  2.2041E+00  2.2041E+00  2.2113E+00  2.2991E+00  2.2991E+00
  2.3159E+00  2.3790E+00  2.3790E+00  2.4130E+00  2.4379E+00  2.4379E+00
  2.5152E+00  2.5152E+00  2.5786E+00  2.5988E+00  2.6235E+00  2.6354E+00
  2.6746E+00  2.6746E+00  2.7159E+00  2.7159E+00  2.7232E+00  2.7599E+00
  2.8958E+00  2.8958E+00  2.9049E+00  2.9099E+00  2.9099E+00  2.9959E+00
  2.9959E+00  3.0649E+00  3.0649E+00  3.0735E+00  3.0824E+00  3.2623E+00
  3.2623E+00  3.2906E+00  3.3250E+00  3.3303E+00  3.3303E+00  3.3707E+00
  3.4592E+00  3.4833E+00  3.4833E+00  3.5488E+00  3.5488E+00  3.5650E+00
  3.5707E+00  3.5707E+00  3.6344E+00  3.6512E+00  3.6512E+00  3.6690E+00
  3.6896E+00  3.7022E+00  3.7050E+00
  prteigrs : nnsclo,ikpt=   50    3 max resid (incl. the buffer)=  1.74145E-05
 Non-SCF case, kpt    4 (  0.25000  0.25000  0.00000), residuals and eigenvalues=
  1.65E-10  1.45E-10  6.94E-09  8.72E-09  1.78E-10  1.92E-10  2.13E-10  3.62E-10
  2.25E-10  6.31E-10  5.44E-11  3.06E-10  8.31E-10  4.75E-10  3.09E-10  1.23E-09
  3.05E-10  1.73E-10  8.40E-10  1.27E-09  9.50E-10  3.71E-10  7.19E-10  5.01E-10
  8.36E-10  1.68E-09  4.28E-10  8.38E-10  6.35E-10  3.88E-10  8.49E-10  4.02E-10
  1.66E-09  4.67E-10  7.16E-10  1.77E-09  6.15E-10  8.70E-10  6.36E-10  7.77E-10
  1.89E-09  2.12E-09  4.83E-10  8.94E-10  5.06E-10  1.30E-09  1.48E-09  1.02E-09
  4.82E-10  8.50E-10  3.59E-10  1.20E-09  7.67E-10  7.24E-10  3.65E-10  1.42E-09
  7.10E-09  4.17E-09  2.03E-09  3.92E-09  1.03E-09  1.56E-09  1.34E-09  5.36E-09
  6.61E-09  2.70E-09  1.61E-09  4.17E-09  8.66E-09  5.68E-09  2.60E-09  6.17E-09
  9.31E-09  1.40E-09  5.93E-09  8.82E-09  7.84E-10  4.26E-09  1.47E-09  2.07E-09
  6.34E-09  5.79E-09  6.30E-09  7.94E-09  2.67E-09  2.28E-09  1.81E-09  4.93E-09
  4.91E-09  5.35E-09  9.90E-09  5.09E-09  4.61E-09  9.16E-09  6.92E-09  7.40E-09
  5.39E-09  3.96E-09  7.12E-09  4.91E-09  8.70E-07  3.32E-07  9.71E-09  4.06E-07
  1.15E-05
 -1.8523E-01  8.8869E-02  1.4751E-01  1.4751E-01  2.5598E-01  3.3004E-01
  4.3024E-01  4.3024E-01  5.1122E-01  5.5209E-01  6.2976E-01  6.9690E-01
  6.9690E-01  7.2029E-01  8.5827E-01  8.5827E-01  9.0159E-01  9.5935E-01
  9.8825E-01  1.1387E+00  1.1878E+00  1.2242E+00  1.2242E+00  1.3031E+00
  1.3031E+00  1.3172E+00  1.3272E+00  1.4937E+00  1.5077E+00  1.5332E+00
  1.5332E+00  1.5943E+00  1.5943E+00  1.5965E+00  1.6448E+00  1.6668E+00
  1.7255E+00  1.7255E+00  1.7527E+00  1.8311E+00  1.8311E+00  1.8481E+00
  1.8672E+00  1.9432E+00  1.9554E+00  1.9554E+00  1.9940E+00  2.0397E+00
  2.0929E+00  2.1034E+00  2.1069E+00  2.1069E+00  2.2213E+00  2.3047E+00
  2.3432E+00  2.3432E+00  2.4779E+00  2.4878E+00  2.5022E+00  2.5022E+00
  2.5467E+00  2.5552E+00  2.5621E+00  2.5621E+00  2.6093E+00  2.6876E+00
  2.7000E+00  2.7195E+00  2.7195E+00  2.8072E+00  2.8433E+00  2.8433E+00
  2.8548E+00  2.9367E+00  2.9367E+00  2.9619E+00  2.9864E+00  2.9907E+00
  3.0655E+00  3.0885E+00  3.0885E+00  3.1641E+00  3.2201E+00  3.2201E+00
  3.2273E+00  3.2759E+00  3.3407E+00  3.3407E+00  3.3908E+00  3.4400E+00
  3.4400E+00  3.4443E+00  3.5070E+00  3.5388E+00  3.5388E+00  3.5684E+00
  3.5861E+00  3.6045E+00  3.6045E+00  3.6082E+00  3.6749E+00  3.6857E+00
  3.7208E+00  3.7217E+00  3.7223E+00
  prteigrs : nnsclo,ikpt=   50    4 max resid (incl. the buffer)=  1.15481E-05
 Non-SCF case, kpt    5 (  0.50000  0.25000  0.00000), residuals and eigenvalues=
  4.14E-11  9.50E-11  4.89E-11  2.80E-09  7.02E-09  3.20E-10  8.23E-11  7.98E-11
  2.49E-10  1.49E-10  2.08E-10  1.26E-10  8.73E-11  5.24E-10  4.26E-10  1.39E-10
  1.35E-10  6.85E-10  3.89E-10  1.63E-10  1.30E-09  2.45E-10  7.57E-10  1.98E-10
  1.17E-10  9.83E-11  4.54E-10  2.82E-10  2.59E-10  4.91E-10  5.87E-10  7.66E-10
  8.23E-10  1.18E-09  3.51E-10  5.34E-10  3.15E-09  6.34E-10  3.52E-09  2.03E-09
  2.06E-09  1.16E-09  1.04E-09  2.54E-10  1.23E-09  3.73E-10  3.99E-09  1.66E-09
  7.57E-10  4.38E-09  4.60E-09  5.43E-09  2.62E-09  3.69E-10  2.07E-10  6.53E-10
  6.58E-10  5.01E-10  2.04E-10  4.77E-10  2.49E-10  6.87E-10  5.04E-09  3.02E-10
  9.74E-10  4.24E-10  9.24E-10  9.69E-10  3.44E-09  3.73E-09  2.12E-09  3.20E-09
  1.28E-09  1.51E-09  3.59E-09  2.25E-09  3.11E-09  3.36E-09  4.77E-09  4.70E-09
  5.33E-09  2.36E-09  1.97E-09  2.14E-09  4.44E-09  4.71E-09  6.84E-09  8.54E-09
  3.69E-09  3.66E-09  5.50E-09  7.07E-09  2.65E-09  9.79E-09  4.78E-09  7.88E-09
  4.26E-09  9.62E-09  9.82E-09  9.88E-09  9.96E-09  7.20E-09  5.97E-09  9.89E-09
  2.58E-08
 -1.2386E-01 -1.8175E-02  8.5440E-02  1.3585E-01  2.7036E-01  3.8006E-01
  4.2814E-01  4.3634E-01  5.9136E-01  6.1029E-01  6.7084E-01  6.8257E-01
  6.9112E-01  8.3611E-01  8.7618E-01  9.0332E-01  9.3256E-01  9.3892E-01
  9.5101E-01  1.0572E+00  1.0983E+00  1.1477E+00  1.1550E+00  1.2351E+00
  1.2917E+00  1.3031E+00  1.3032E+00  1.3492E+00  1.4025E+00  1.4844E+00
  1.5012E+00  1.5546E+00  1.5711E+00  1.6041E+00  1.6437E+00  1.7063E+00
  1.7838E+00  1.8181E+00  1.8680E+00  1.8692E+00  1.8898E+00  1.9198E+00
  1.9317E+00  1.9776E+00  2.0159E+00  2.0190E+00  2.0481E+00  2.0931E+00
  2.1285E+00  2.1609E+00  2.2136E+00  2.2548E+00  2.2745E+00  2.3648E+00
  2.3679E+00  2.3762E+00  2.4438E+00  2.4587E+00  2.4716E+00  2.5026E+00
  2.5297E+00  2.5543E+00  2.5559E+00  2.6025E+00  2.6103E+00  2.6462E+00
  2.6690E+00  2.6890E+00  2.7474E+00  2.7485E+00  2.7671E+00  2.7969E+00
  2.8435E+00  2.8560E+00  2.9128E+00  2.9139E+00  2.9209E+00  2.9984E+00
  3.0066E+00  3.0667E+00  3.0889E+00  3.1064E+00  3.1215E+00  3.1686E+00
  3.1727E+00  3.2508E+00  3.2546E+00  3.2599E+00  3.2900E+00  3.3244E+00
  3.3570E+00  3.3830E+00  3.4239E+00  3.4567E+00  3.4934E+00  3.5328E+00
  3.5552E+00  3.5553E+00  3.5698E+00  3.6052E+00  3.6170E+00  3.6234E+00
  3.6459E+00  3.6569E+00  3.6798E+00
  prteigrs : nnsclo,ikpt=   50    5 max resid (incl. the buffer)=  2.57699E-08
 Non-SCF case, kpt    6 ( -0.25000  0.25000  0.00000), residuals and eigenvalues=
  6.93E-11  1.13E-10  2.65E-09  4.46E-09  1.20E-10  1.01E-10  3.98E-10  5.18E-11
  2.28E-10  1.04E-10  1.38E-10  4.25E-10  1.64E-10  2.34E-10  5.94E-10  7.10E-10
  5.07E-10  8.64E-10  2.42E-10  9.43E-10  1.19E-10  4.44E-10  6.55E-10  4.22E-10
  9.57E-10  2.06E-10  8.72E-10  6.32E-10  2.15E-09  2.03E-09  7.13E-10  6.80E-10
  9.89E-10  6.61E-10  1.17E-09  2.46E-10  1.87E-09  9.86E-10  3.10E-09  3.18E-09
  1.25E-09  1.64E-09  5.13E-09  2.87E-10  6.81E-10  4.48E-10  4.63E-09  3.91E-09
  3.28E-09  2.29E-09  5.27E-10  4.07E-10  7.34E-10  4.46E-10  7.36E-10  2.18E-10
  4.10E-10  5.83E-10  9.53E-10  7.72E-10  3.69E-10  9.53E-10  1.02E-09  1.68E-09
  8.67E-10  6.33E-10  1.40E-09  2.85E-09  5.90E-09  2.47E-09  1.19E-09  3.96E-09
  4.33E-09  1.37E-09  6.27E-09  4.96E-09  6.57E-09  5.15E-09  3.78E-09  2.98E-09
  2.13E-09  7.81E-09  9.20E-10  7.45E-09  6.46E-09  9.54E-09  9.48E-10  5.49E-09
  1.77E-09  9.65E-09  5.12E-09  4.76E-09  5.56E-09  5.32E-09  8.89E-09  6.05E-09
  4.95E-09  5.32E-09  6.01E-09  5.56E-09  5.72E-09  1.69E-05  1.57E-06  7.97E-05
  8.67E-05
 -1.4913E-01  1.5624E-02  7.6909E-02  1.6892E-01  3.0556E-01  3.9378E-01
  4.0634E-01  4.4077E-01  4.5773E-01  5.7112E-01  6.7888E-01  7.0641E-01
  7.0876E-01  8.2949E-01  8.5593E-01  8.5847E-01  9.1046E-01  1.0003E+00
  1.0204E+00  1.1037E+00  1.1245E+00  1.1569E+00  1.1978E+00  1.2164E+00
  1.2282E+00  1.2965E+00  1.3425E+00  1.3666E+00  1.4771E+00  1.4941E+00
  1.5417E+00  1.5767E+00  1.5986E+00  1.6024E+00  1.6237E+00  1.6409E+00
  1.6526E+00  1.7314E+00  1.8234E+00  1.8440E+00  1.8668E+00  1.9318E+00
  2.0089E+00  2.0335E+00  2.0714E+00  2.0756E+00  2.0868E+00  2.0931E+00
  2.1294E+00  2.1449E+00  2.1910E+00  2.2491E+00  2.2680E+00  2.2913E+00
  2.3367E+00  2.3408E+00  2.3626E+00  2.4365E+00  2.4437E+00  2.4810E+00
  2.4938E+00  2.5021E+00  2.5928E+00  2.6038E+00  2.6109E+00  2.6623E+00
  2.6939E+00  2.7239E+00  2.7276E+00  2.7497E+00  2.8148E+00  2.8543E+00
  2.8719E+00  2.8942E+00  2.8988E+00  2.9629E+00  2.9754E+00  2.9856E+00
  3.0230E+00  3.0527E+00  3.0822E+00  3.0846E+00  3.1048E+00  3.1717E+00
  3.1775E+00  3.2288E+00  3.2783E+00  3.3099E+00  3.3337E+00  3.3365E+00
  3.3713E+00  3.4220E+00  3.4472E+00  3.4880E+00  3.5348E+00  3.5523E+00
  3.5866E+00  3.5888E+00  3.6143E+00  3.6158E+00  3.6266E+00  3.7381E+00
  3.7500E+00  3.7769E+00  3.7864E+00
  prteigrs : nnsclo,ikpt=   50    6 max resid (incl. the buffer)=  8.66983E-05
 Non-SCF case, kpt    7 (  0.50000  0.50000  0.00000), residuals and eigenvalues=
  1.07E-10  2.96E-10  1.81E-09  6.64E-09  2.00E-10  9.54E-09  8.15E-11  1.22E-10
  4.46E-10  5.74E-10  3.92E-10  7.25E-10  8.09E-11  1.90E-10  4.26E-10  1.15E-09
  2.30E-10  8.20E-09  1.41E-10  8.75E-09  8.95E-11  4.01E-10  1.31E-09  1.37E-09
  2.48E-10  4.21E-10  1.59E-10  1.27E-09  7.84E-10  2.19E-09  4.34E-10  1.20E-09
  1.88E-10  9.82E-10  2.67E-10  8.60E-10  3.81E-10  8.65E-10  4.62E-10  1.49E-09
  2.85E-10  8.37E-10  3.86E-10  6.82E-10  5.54E-10  2.51E-09  9.37E-10  2.93E-09
  2.48E-09  4.99E-09  2.22E-09  3.35E-09  3.44E-10  1.21E-09  5.76E-10  2.83E-09
  1.86E-09  3.61E-09  7.60E-10  3.58E-09  3.78E-09  2.84E-09  3.76E-10  6.83E-10
  3.22E-09  6.78E-09  3.23E-09  4.28E-09  2.45E-09  8.26E-09  7.16E-09  7.56E-09
  3.03E-09  4.92E-09  2.64E-09  3.76E-09  2.81E-09  5.17E-09  2.75E-09  6.13E-09
  2.00E-09  5.08E-09  7.36E-10  7.45E-10  3.63E-09  8.77E-09  1.23E-09  3.76E-09
  1.83E-09  8.37E-09  1.37E-09  3.58E-09  5.71E-09  9.48E-09  3.26E-09  6.92E-09
  5.17E-09  6.99E-09  8.21E-09  9.16E-09  7.33E-09  5.43E-09  8.15E-08  1.02E-06
  6.23E-05
 -7.0906E-02 -7.0906E-02  1.1156E-01  1.1156E-01  2.3972E-01  2.3972E-01
  5.8734E-01  5.8734E-01  6.2885E-01  6.2885E-01  6.8567E-01  6.8567E-01
  6.8978E-01  6.8978E-01  9.1381E-01  9.1381E-01  9.4070E-01  9.4070E-01
  9.6363E-01  9.6363E-01  9.9616E-01  9.9616E-01  1.1666E+00  1.1666E+00
  1.3050E+00  1.3050E+00  1.4702E+00  1.4702E+00  1.4741E+00  1.4741E+00
  1.5495E+00  1.5495E+00  1.5718E+00  1.5718E+00  1.6801E+00  1.6801E+00
  1.7223E+00  1.7223E+00  1.7541E+00  1.7541E+00  1.8919E+00  1.8919E+00
  2.0214E+00  2.0214E+00  2.0402E+00  2.0402E+00  2.0971E+00  2.0971E+00
  2.2396E+00  2.2396E+00  2.3108E+00  2.3108E+00  2.3193E+00  2.3193E+00
  2.3205E+00  2.3205E+00  2.3486E+00  2.3486E+00  2.4407E+00  2.4407E+00
  2.4799E+00  2.4799E+00  2.4874E+00  2.4874E+00  2.7780E+00  2.7780E+00
  2.7925E+00  2.7925E+00  2.8034E+00  2.8034E+00  2.8942E+00  2.8942E+00
  2.9047E+00  2.9047E+00  2.9226E+00  2.9226E+00  2.9976E+00  2.9976E+00
  3.0192E+00  3.0192E+00  3.0321E+00  3.0321E+00  3.0492E+00  3.0492E+00
  3.1282E+00  3.1282E+00  3.1297E+00  3.1297E+00  3.2388E+00  3.2388E+00
  3.2418E+00  3.2418E+00  3.3463E+00  3.3463E+00  3.5207E+00  3.5207E+00
  3.5748E+00  3.5748E+00  3.6110E+00  3.6110E+00  3.6185E+00  3.6185E+00
  3.6854E+00  3.6854E+00  3.7294E+00
  prteigrs : nnsclo,ikpt=   50    7 max resid (incl. the buffer)=  6.22888E-05
 Non-SCF case, kpt    8 ( -0.25000  0.50000  0.25000), residuals and eigenvalues=
  5.86E-11  8.35E-11  4.04E-10  1.33E-09  6.69E-11  1.03E-10  1.01E-10  9.05E-09
  4.06E-11  9.23E-11  2.26E-10  4.62E-10  6.23E-11  1.76E-10  8.68E-11  2.51E-10
  1.40E-10  3.70E-10  9.26E-11  4.47E-10  2.15E-10  2.95E-10  4.12E-10  7.46E-10
  1.75E-10  7.86E-09  2.29E-09  7.27E-09  5.55E-10  1.58E-09  3.46E-10  5.45E-10
  1.62E-10  8.66E-10  4.77E-10  2.30E-09  7.74E-10  2.41E-09  1.04E-09  3.85E-09
  5.72E-10  2.18E-09  4.53E-10  1.40E-09  2.15E-10  1.21E-09  1.91E-10  3.70E-09
  1.19E-09  3.15E-09  1.73E-10  1.06E-09  1.58E-10  8.56E-10  3.98E-10  1.95E-09
  4.73E-10  1.81E-09  4.02E-10  2.93E-09  4.70E-10  5.82E-09  4.30E-10  1.43E-09
  3.91E-10  2.16E-09  1.09E-09  6.56E-09  1.05E-09  4.24E-09  1.63E-09  2.52E-09
  1.67E-09  5.90E-09  3.51E-09  6.26E-09  2.56E-09  4.50E-09  1.05E-09  4.35E-09
  1.00E-09  3.83E-09  4.07E-10  4.14E-09  5.09E-09  7.27E-09  6.65E-09  9.08E-09
  1.18E-09  6.58E-09  1.86E-09  3.92E-09  3.73E-09  5.21E-09  3.91E-09  6.80E-09
  7.31E-09  2.40E-09  3.24E-09  9.97E-09  5.62E-09  6.81E-08  1.47E-07  8.44E-07
  2.92E-04
 -6.4416E-02 -6.4416E-02  7.2995E-02  7.2995E-02  3.7348E-01  3.7348E-01
  4.0079E-01  4.0079E-01  6.0943E-01  6.0943E-01  6.9868E-01  6.9868E-01
  8.2294E-01  8.2294E-01  8.9576E-01  8.9576E-01  9.1673E-01  9.1673E-01
  9.5471E-01  9.5471E-01  1.0899E+00  1.0899E+00  1.2347E+00  1.2347E+00
  1.2373E+00  1.2373E+00  1.2748E+00  1.2748E+00  1.4363E+00  1.4363E+00
  1.5685E+00  1.5685E+00  1.6221E+00  1.6221E+00  1.7047E+00  1.7047E+00
  1.8155E+00  1.8155E+00  1.8351E+00  1.8351E+00  1.9329E+00  1.9329E+00
  1.9701E+00  1.9701E+00  2.0180E+00  2.0180E+00  2.0587E+00  2.0587E+00
  2.2506E+00  2.2506E+00  2.2709E+00  2.2709E+00  2.2929E+00  2.2929E+00
  2.3197E+00  2.3197E+00  2.4435E+00  2.4435E+00  2.4461E+00  2.4461E+00
  2.5503E+00  2.5503E+00  2.5850E+00  2.5850E+00  2.6160E+00  2.6160E+00
  2.6175E+00  2.6175E+00  2.8242E+00  2.8242E+00  2.8325E+00  2.8325E+00
  2.9243E+00  2.9243E+00  2.9914E+00  2.9914E+00  3.0008E+00  3.0008E+00
  3.0306E+00  3.0306E+00  3.0487E+00  3.0487E+00  3.0552E+00  3.0552E+00
  3.2251E+00  3.2251E+00  3.2415E+00  3.2415E+00  3.2490E+00  3.2490E+00
  3.2837E+00  3.2837E+00  3.4170E+00  3.4170E+00  3.4793E+00  3.4793E+00
  3.4892E+00  3.4892E+00  3.4940E+00  3.4940E+00  3.5667E+00  3.5667E+00
  3.6198E+00  3.6198E+00  3.7339E+00
  prteigrs : nnsclo,ikpt=   50    8 max resid (incl. the buffer)=  2.91710E-04
================================================================================

 ----iterations are completed or convergence reached----

 Mean square residual over all n,k,spin=   9.3488E-07; max=  1.9697E-04
   0.0000  0.0000  0.0000    1  3.83635E-07 kpt; spin; max resid(k); each band:
  1.09E-10 1.05E-10 4.62E-09 7.57E-09 1.65E-09 4.99E-09 8.90E-09 6.05E-11
  4.29E-11 1.28E-10 1.51E-10 5.87E-11 1.11E-10 1.68E-10 1.81E-09 3.32E-10
  8.33E-10 9.11E-10 2.16E-10 4.79E-10 9.61E-11 1.53E-10 2.69E-10 8.03E-11
  2.51E-09 9.02E-09 8.75E-09 2.55E-10 5.47E-10 1.42E-09 6.35E-10 1.19E-09
  2.76E-10 4.18E-10 9.41E-11 1.26E-10 5.87E-10 3.82E-10 2.36E-10 2.98E-10
  8.44E-09 4.04E-10 1.79E-10 2.46E-10 8.51E-09 1.59E-10 3.43E-10 9.32E-09
  1.25E-10 1.84E-10 6.97E-09 6.37E-10 3.44E-10 7.74E-10 1.83E-09 1.32E-10
  3.06E-10 7.51E-10 4.36E-10 6.74E-10 4.71E-09 3.01E-09 1.96E-09 3.41E-09
  9.45E-09 8.37E-09 2.19E-09 3.85E-09 7.40E-09 2.62E-09 9.36E-09 1.30E-09
  3.61E-09 7.76E-09 3.56E-09 3.32E-09 5.49E-09 8.50E-09 3.10E-09 4.90E-09
  8.26E-09 2.66E-09 3.54E-09 4.79E-09 3.29E-09 4.81E-09 6.95E-09 2.13E-09
  5.94E-09 7.21E-09 8.84E-09 2.27E-09 4.87E-09 5.23E-09 3.33E-09 1.96E-09
  5.30E-09 5.23E-09 8.94E-09 8.41E-09 1.91E-08 7.22E-09 6.22E-09 3.84E-07
  9.79E-09
   0.2500  0.0000  0.0000    1  1.96966E-04 kpt; spin; max resid(k); each band:
  1.77E-10 2.45E-10 1.27E-10 6.29E-09 4.42E-10 4.03E-10 8.52E-09 1.77E-10
  2.63E-10 1.35E-09 8.48E-11 2.72E-10 3.50E-10 8.24E-10 7.70E-10 3.22E-10
  1.34E-09 1.85E-10 7.32E-10 2.55E-09 5.58E-10 1.36E-09 3.17E-09 1.31E-09
  4.90E-10 3.63E-10 1.64E-09 6.62E-10 4.08E-09 4.63E-10 2.18E-09 2.35E-09
  2.06E-09 2.18E-10 1.62E-09 4.57E-10 5.73E-10 9.04E-10 2.14E-09 2.84E-09
  8.59E-10 2.67E-09 5.37E-10 3.28E-09 5.57E-09 6.87E-10 1.28E-09 3.49E-09
  2.28E-09 1.39E-09 4.64E-09 3.07E-09 1.55E-09 5.02E-10 1.58E-09 1.95E-09
  6.67E-10 5.71E-09 9.32E-10 5.97E-09 3.41E-09 8.48E-09 1.02E-09 6.48E-09
  7.03E-09 2.00E-09 5.21E-09 3.05E-09 9.98E-10 3.59E-09 7.44E-10 1.10E-09
  5.25E-09 3.68E-09 9.70E-09 1.73E-09 4.36E-09 4.22E-09 5.32E-09 3.80E-09
  2.96E-09 2.73E-09 5.31E-09 7.85E-10 1.92E-09 4.43E-09 3.76E-09 3.48E-09
  8.07E-09 2.92E-09 4.48E-09 5.70E-09 3.46E-09 3.28E-09 9.16E-09 2.33E-09
  3.82E-09 3.71E-09 7.94E-09 5.15E-09 7.99E-09 1.12E-08 3.91E-08 1.56E-06
  1.97E-04
   0.5000  0.0000  0.0000    1  1.74145E-05 kpt; spin; max resid(k); each band:
  8.26E-11 2.41E-09 2.74E-09 9.51E-09 3.36E-11 3.69E-11 9.78E-09 2.80E-09
  5.73E-11 2.68E-10 5.87E-09 5.23E-11 7.60E-09 6.00E-11 1.76E-10 1.30E-10
  3.34E-11 2.14E-10 1.10E-10 7.90E-10 2.09E-10 9.93E-11 1.02E-09 1.25E-10
  3.98E-10 4.83E-09 1.17E-10 1.78E-10 4.36E-10 4.06E-10 2.38E-10 5.46E-10
  5.78E-11 1.11E-10 4.46E-10 7.00E-10 5.37E-10 2.47E-10 1.25E-09 4.00E-10
  1.09E-09 1.67E-09 3.35E-09 1.96E-10 2.51E-09 1.59E-09 1.23E-09 2.34E-09
  3.99E-10 2.75E-10 3.76E-09 2.01E-09 1.33E-09 3.49E-09 5.67E-10 3.10E-10
  5.39E-09 7.32E-10 6.60E-10 4.61E-09 2.09E-10 9.55E-10 1.27E-09 3.80E-10
  5.66E-09 1.79E-09 5.82E-10 1.15E-09 3.79E-10 7.99E-10 1.00E-09 2.03E-09
  3.98E-10 1.11E-09 9.60E-10 1.73E-09 3.43E-09 8.35E-10 2.96E-09 1.47E-09
  7.00E-09 7.92E-09 3.24E-09 4.66E-09 5.59E-09 9.10E-09 8.46E-09 1.75E-09
  3.96E-09 7.67E-09 7.46E-09 2.28E-09 5.72E-09 9.53E-09 9.85E-09 7.87E-09
  5.33E-09 5.35E-09 5.88E-09 7.27E-09 1.63E-08 4.81E-07 5.00E-06 1.74E-05
  7.07E-06
   0.2500  0.2500  0.0000    1  1.15481E-05 kpt; spin; max resid(k); each band:
  1.65E-10 1.45E-10 6.94E-09 8.72E-09 1.78E-10 1.92E-10 2.13E-10 3.62E-10
  2.25E-10 6.31E-10 5.44E-11 3.06E-10 8.31E-10 4.75E-10 3.09E-10 1.23E-09
  3.05E-10 1.73E-10 8.40E-10 1.27E-09 9.50E-10 3.71E-10 7.19E-10 5.01E-10
  8.36E-10 1.68E-09 4.28E-10 8.38E-10 6.35E-10 3.88E-10 8.49E-10 4.02E-10
  1.66E-09 4.67E-10 7.16E-10 1.77E-09 6.15E-10 8.70E-10 6.36E-10 7.77E-10
  1.89E-09 2.12E-09 4.83E-10 8.94E-10 5.06E-10 1.30E-09 1.48E-09 1.02E-09
  4.82E-10 8.50E-10 3.59E-10 1.20E-09 7.67E-10 7.24E-10 3.65E-10 1.42E-09
  7.10E-09 4.17E-09 2.03E-09 3.92E-09 1.03E-09 1.56E-09 1.34E-09 5.36E-09
  6.61E-09 2.70E-09 1.61E-09 4.17E-09 8.66E-09 5.68E-09 2.60E-09 6.17E-09
  9.31E-09 1.40E-09 5.93E-09 8.82E-09 7.84E-10 4.26E-09 1.47E-09 2.07E-09
  6.34E-09 5.79E-09 6.30E-09 7.94E-09 2.67E-09 2.28E-09 1.81E-09 4.93E-09
  4.91E-09 5.35E-09 9.90E-09 5.09E-09 4.61E-09 9.16E-09 6.92E-09 7.40E-09
  5.39E-09 3.96E-09 7.12E-09 4.91E-09 8.70E-07 3.32E-07 9.71E-09 4.06E-07
  1.15E-05
   0.5000  0.2500  0.0000    1  2.57699E-08 kpt; spin; max resid(k); each band:
  4.14E-11 9.50E-11 4.89E-11 2.80E-09 7.02E-09 3.20E-10 8.23E-11 7.98E-11
  2.49E-10 1.49E-10 2.08E-10 1.26E-10 8.73E-11 5.24E-10 4.26E-10 1.39E-10
  1.35E-10 6.85E-10 3.89E-10 1.63E-10 1.30E-09 2.45E-10 7.57E-10 1.98E-10
  1.17E-10 9.83E-11 4.54E-10 2.82E-10 2.59E-10 4.91E-10 5.87E-10 7.66E-10
  8.23E-10 1.18E-09 3.51E-10 5.34E-10 3.15E-09 6.34E-10 3.52E-09 2.03E-09
  2.06E-09 1.16E-09 1.04E-09 2.54E-10 1.23E-09 3.73E-10 3.99E-09 1.66E-09
  7.57E-10 4.38E-09 4.60E-09 5.43E-09 2.62E-09 3.69E-10 2.07E-10 6.53E-10
  6.58E-10 5.01E-10 2.04E-10 4.77E-10 2.49E-10 6.87E-10 5.04E-09 3.02E-10
  9.74E-10 4.24E-10 9.24E-10 9.69E-10 3.44E-09 3.73E-09 2.12E-09 3.20E-09
  1.28E-09 1.51E-09 3.59E-09 2.25E-09 3.11E-09 3.36E-09 4.77E-09 4.70E-09
  5.33E-09 2.36E-09 1.97E-09 2.14E-09 4.44E-09 4.71E-09 6.84E-09 8.54E-09
  3.69E-09 3.66E-09 5.50E-09 7.07E-09 2.65E-09 9.79E-09 4.78E-09 7.88E-09
  4.26E-09 9.62E-09 9.82E-09 9.88E-09 9.96E-09 7.20E-09 5.97E-09 9.89E-09
  2.58E-08
  -0.2500  0.2500  0.0000    1  8.66983E-05 kpt; spin; max resid(k); each band:
  6.93E-11 1.13E-10 2.65E-09 4.46E-09 1.20E-10 1.01E-10 3.98E-10 5.18E-11
  2.28E-10 1.04E-10 1.38E-10 4.25E-10 1.64E-10 2.34E-10 5.94E-10 7.10E-10
  5.07E-10 8.64E-10 2.42E-10 9.43E-10 1.19E-10 4.44E-10 6.55E-10 4.22E-10
  9.57E-10 2.06E-10 8.72E-10 6.32E-10 2.15E-09 2.03E-09 7.13E-10 6.80E-10
  9.89E-10 6.61E-10 1.17E-09 2.46E-10 1.87E-09 9.86E-10 3.10E-09 3.18E-09
  1.25E-09 1.64E-09 5.13E-09 2.87E-10 6.81E-10 4.48E-10 4.63E-09 3.91E-09
  3.28E-09 2.29E-09 5.27E-10 4.07E-10 7.34E-10 4.46E-10 7.36E-10 2.18E-10
  4.10E-10 5.83E-10 9.53E-10 7.72E-10 3.69E-10 9.53E-10 1.02E-09 1.68E-09
  8.67E-10 6.33E-10 1.40E-09 2.85E-09 5.90E-09 2.47E-09 1.19E-09 3.96E-09
  4.33E-09 1.37E-09 6.27E-09 4.96E-09 6.57E-09 5.15E-09 3.78E-09 2.98E-09
  2.13E-09 7.81E-09 9.20E-10 7.45E-09 6.46E-09 9.54E-09 9.48E-10 5.49E-09
  1.77E-09 9.65E-09 5.12E-09 4.76E-09 5.56E-09 5.32E-09 8.89E-09 6.05E-09
  4.95E-09 5.32E-09 6.01E-09 5.56E-09 5.72E-09 1.69E-05 1.57E-06 7.97E-05
  8.67E-05
   0.5000  0.5000  0.0000    1  6.22888E-05 kpt; spin; max resid(k); each band:
  1.07E-10 2.96E-10 1.81E-09 6.64E-09 2.00E-10 9.54E-09 8.15E-11 1.22E-10
  4.46E-10 5.74E-10 3.92E-10 7.25E-10 8.09E-11 1.90E-10 4.26E-10 1.15E-09
  2.30E-10 8.20E-09 1.41E-10 8.75E-09 8.95E-11 4.01E-10 1.31E-09 1.37E-09
  2.48E-10 4.21E-10 1.59E-10 1.27E-09 7.84E-10 2.19E-09 4.34E-10 1.20E-09
  1.88E-10 9.82E-10 2.67E-10 8.60E-10 3.81E-10 8.65E-10 4.62E-10 1.49E-09
  2.85E-10 8.37E-10 3.86E-10 6.82E-10 5.54E-10 2.51E-09 9.37E-10 2.93E-09
  2.48E-09 4.99E-09 2.22E-09 3.35E-09 3.44E-10 1.21E-09 5.76E-10 2.83E-09
  1.86E-09 3.61E-09 7.60E-10 3.58E-09 3.78E-09 2.84E-09 3.76E-10 6.83E-10
  3.22E-09 6.78E-09 3.23E-09 4.28E-09 2.45E-09 8.26E-09 7.16E-09 7.56E-09
  3.03E-09 4.92E-09 2.64E-09 3.76E-09 2.81E-09 5.17E-09 2.75E-09 6.13E-09
  2.00E-09 5.08E-09 7.36E-10 7.45E-10 3.63E-09 8.77E-09 1.23E-09 3.76E-09
  1.83E-09 8.37E-09 1.37E-09 3.58E-09 5.71E-09 9.48E-09 3.26E-09 6.92E-09
  5.17E-09 6.99E-09 8.21E-09 9.16E-09 7.33E-09 5.43E-09 8.15E-08 1.02E-06
  6.23E-05
  -0.2500  0.5000  0.2500    1  2.91710E-04 kpt; spin; max resid(k); each band:
  5.86E-11 8.35E-11 4.04E-10 1.33E-09 6.69E-11 1.03E-10 1.01E-10 9.05E-09
  4.06E-11 9.23E-11 2.26E-10 4.62E-10 6.23E-11 1.76E-10 8.68E-11 2.51E-10
  1.40E-10 3.70E-10 9.26E-11 4.47E-10 2.15E-10 2.95E-10 4.12E-10 7.46E-10
  1.75E-10 7.86E-09 2.29E-09 7.27E-09 5.55E-10 1.58E-09 3.46E-10 5.45E-10
  1.62E-10 8.66E-10 4.77E-10 2.30E-09 7.74E-10 2.41E-09 1.04E-09 3.85E-09
  5.72E-10 2.18E-09 4.53E-10 1.40E-09 2.15E-10 1.21E-09 1.91E-10 3.70E-09
  1.19E-09 3.15E-09 1.73E-10 1.06E-09 1.58E-10 8.56E-10 3.98E-10 1.95E-09
  4.73E-10 1.81E-09 4.02E-10 2.93E-09 4.70E-10 5.82E-09 4.30E-10 1.43E-09
  3.91E-10 2.16E-09 1.09E-09 6.56E-09 1.05E-09 4.24E-09 1.63E-09 2.52E-09
  1.67E-09 5.90E-09 3.51E-09 6.26E-09 2.56E-09 4.50E-09 1.05E-09 4.35E-09
  1.00E-09 3.83E-09 4.07E-10 4.14E-09 5.09E-09 7.27E-09 6.65E-09 9.08E-09
  1.18E-09 6.58E-09 1.86E-09 3.92E-09 3.73E-09 5.21E-09 3.91E-09 6.80E-09
  7.31E-09 2.40E-09 3.24E-09 9.97E-09 5.62E-09 6.81E-08 1.47E-07 8.44E-07
  2.92E-04
 reduced coordinates (array xred) for    2 atoms
       0.000000000000      0.000000000000      0.000000000000
       0.250000000000      0.250000000000      0.250000000000

 cartesian coordinates (angstrom) at end:
    1      0.00000000000000     0.00000000000000     0.00000000000000
    2      1.35165088504101     1.35165088504101     1.35165088504101
 length scales= 10.217000000000 10.217000000000 10.217000000000 bohr
              =  5.406603540164  5.406603540164  5.406603540164 angstroms
 prteigrs : about to open file tbs_1o_DS2_EIG
 Eigenvalues (hartree) for nkpt=   8  k points:
 kpt#   1, nband=105, wtk=  0.01563, kpt=  0.0000  0.0000  0.0000 (reduced coord)
  -0.22563   0.21899   0.21899   0.21899   0.31120   0.31120   0.31120   0.33856
   0.49984   0.50855   0.50855   0.62896   0.62896   0.62896   0.77142   1.07763
   1.07763   1.07763   1.12008   1.12008   1.15495   1.15495   1.15495   1.30561
   1.30561   1.30561   1.50169   1.52317   1.52317   1.52317   1.66522   1.66522
   1.72420   1.72420   1.74280   1.74280   1.74280   1.79963   1.83986   1.83986
   1.83986   1.85443   1.88136   1.88136   1.88136   1.89049   1.89049   1.89049
   1.93781   1.93781   1.93781   2.08383   2.11896   2.11896   2.11896   2.12224
   2.12224   2.12224   2.13958   2.68744   2.68744   2.69012   2.79363   2.79363
   2.79363   2.79832   2.92038   2.92038   2.92038   2.94464   2.94464   2.94688
   2.94688   2.94688   3.03059   3.09843   3.09843   3.09843   3.24489   3.24489
   3.24489   3.29953   3.29953   3.29953   3.30200   3.30200   3.30200   3.30875
   3.30875   3.43923   3.43923   3.45768   3.45768   3.45768   3.47532   3.57017
   3.57017   3.57017   3.61191   3.61191   3.61191   3.61872   3.61872   3.61872
   3.63999
 kpt#   2, nband=105, wtk=  0.12500, kpt=  0.2500  0.0000  0.0000 (reduced coord)
  -0.19573   0.07221   0.19021   0.19021   0.29027   0.34634   0.34634   0.46820
   0.48535   0.48535   0.54079   0.64689   0.75962   0.75962   0.87634   0.87836
   0.87836   0.94638   1.11399   1.11399   1.19326   1.19326   1.24720   1.28294
   1.33229   1.39651   1.39651   1.45876   1.45876   1.49540   1.49540   1.59272
   1.62601   1.63516   1.63516   1.67819   1.69454   1.73896   1.73896   1.76845
   1.83704   1.83704   1.84495   1.95497   1.95497   2.04459   2.04459   2.04579
   2.05441   2.10719   2.10719   2.13107   2.22778   2.32338   2.33865   2.33865
   2.35182   2.35182   2.43024   2.43024   2.45035   2.45583   2.54132   2.54132
   2.62511   2.69772   2.69772   2.70098   2.84397   2.84397   2.90649   2.94677
   3.01593   3.03446   3.03446   3.05197   3.05197   3.10775   3.13356   3.13356
   3.14574   3.16188   3.16188   3.21442   3.24531   3.24531   3.33014   3.33980
   3.33980   3.34490   3.40473   3.40473   3.41296   3.52876   3.52876   3.54393
   3.54393   3.56257   3.56639   3.63688   3.63688   3.65171   3.69609   3.69610
   3.75070
 kpt#   3, nband=105, wtk=  0.06250, kpt=  0.5000  0.0000  0.0000 (reduced coord)
  -0.13794  -0.04161   0.17394   0.17394   0.27243   0.34008   0.34008   0.49456
   0.61385   0.61385   0.62982   0.63673   0.63673   0.68658   0.93111   0.94947
   1.02163   1.02163   1.02914   1.02914   1.16228   1.20140   1.20140   1.22584
   1.22584   1.25273   1.37395   1.40861   1.40861   1.41650   1.43667   1.43667
   1.53436   1.56762   1.73457   1.73457   1.76465   1.78685   1.78685   1.80720
   1.90331   1.97084   1.97084   2.01933   2.01933   2.05656   2.17523   2.17523
   2.18781   2.20415   2.20415   2.21133   2.29911   2.29911   2.31590   2.37902
   2.37902   2.41299   2.43789   2.43789   2.51523   2.51523   2.57860   2.59884
   2.62352   2.63537   2.67461   2.67461   2.71589   2.71589   2.72323   2.75987
   2.89582   2.89582   2.90495   2.90989   2.90989   2.99592   2.99592   3.06491
   3.06491   3.07349   3.08240   3.26231   3.26231   3.29057   3.32502   3.33026
   3.33026   3.37067   3.45917   3.48326   3.48326   3.54882   3.54882   3.56497
   3.57069   3.57069   3.63441   3.65119   3.65119   3.66899   3.68956   3.70218
   3.70495
 kpt#   4, nband=105, wtk=  0.09375, kpt=  0.2500  0.2500  0.0000 (reduced coord)
  -0.18523   0.08887   0.14751   0.14751   0.25598   0.33004   0.43024   0.43024
   0.51122   0.55209   0.62976   0.69690   0.69690   0.72029   0.85827   0.85827
   0.90159   0.95935   0.98825   1.13866   1.18780   1.22415   1.22415   1.30312
   1.30312   1.31716   1.32720   1.49374   1.50766   1.53317   1.53317   1.59432
   1.59432   1.59648   1.64483   1.66684   1.72549   1.72549   1.75270   1.83108
   1.83108   1.84805   1.86719   1.94321   1.95545   1.95545   1.99403   2.03971
   2.09288   2.10336   2.10690   2.10690   2.22130   2.30470   2.34321   2.34321
   2.47793   2.48782   2.50221   2.50221   2.54668   2.55520   2.56208   2.56208
   2.60931   2.68760   2.70004   2.71952   2.71952   2.80720   2.84330   2.84330
   2.85477   2.93671   2.93671   2.96192   2.98642   2.99073   3.06550   3.08849
   3.08849   3.16410   3.22011   3.22011   3.22730   3.27592   3.34070   3.34070
   3.39082   3.43995   3.43995   3.44426   3.50698   3.53879   3.53879   3.56845
   3.58607   3.60446   3.60446   3.60818   3.67491   3.68569   3.72080   3.72169
   3.72229
 kpt#   5, nband=105, wtk=  0.37500, kpt=  0.5000  0.2500  0.0000 (reduced coord)
  -0.12386  -0.01818   0.08544   0.13585   0.27036   0.38006   0.42814   0.43634
   0.59136   0.61029   0.67084   0.68257   0.69112   0.83611   0.87618   0.90332
   0.93256   0.93892   0.95101   1.05719   1.09826   1.14771   1.15501   1.23509
   1.29167   1.30307   1.30325   1.34920   1.40250   1.48440   1.50115   1.55462
   1.57110   1.60413   1.64373   1.70630   1.78379   1.81806   1.86799   1.86924
   1.88977   1.91981   1.93173   1.97759   2.01590   2.01901   2.04806   2.09310
   2.12852   2.16092   2.21359   2.25485   2.27450   2.36483   2.36785   2.37625
   2.44376   2.45873   2.47164   2.50259   2.52965   2.55433   2.55589   2.60250
   2.61029   2.64619   2.66905   2.68901   2.74743   2.74852   2.76710   2.79693
   2.84350   2.85601   2.91281   2.91395   2.92091   2.99842   3.00661   3.06674
   3.08891   3.10642   3.12148   3.16861   3.17265   3.25075   3.25458   3.25987
   3.28996   3.32442   3.35704   3.38298   3.42389   3.45672   3.49336   3.53284
   3.55521   3.55533   3.56983   3.60521   3.61704   3.62345   3.64589   3.65694
   3.67976
 kpt#   6, nband=105, wtk=  0.18750, kpt= -0.2500  0.2500  0.0000 (reduced coord)
  -0.14913   0.01562   0.07691   0.16892   0.30556   0.39378   0.40634   0.44077
   0.45773   0.57112   0.67888   0.70641   0.70876   0.82949   0.85593   0.85847
   0.91046   1.00026   1.02042   1.10365   1.12454   1.15689   1.19783   1.21644
   1.22818   1.29649   1.34246   1.36657   1.47707   1.49405   1.54170   1.57671
   1.59862   1.60243   1.62369   1.64090   1.65261   1.73135   1.82341   1.84402
   1.86684   1.93182   2.00893   2.03351   2.07142   2.07557   2.08676   2.09313
   2.12937   2.14486   2.19102   2.24913   2.26799   2.29129   2.33667   2.34079
   2.36258   2.43652   2.44365   2.48099   2.49385   2.50214   2.59283   2.60379
   2.61092   2.66232   2.69391   2.72389   2.72761   2.74965   2.81478   2.85433
   2.87194   2.89423   2.89880   2.96287   2.97544   2.98558   3.02300   3.05269
   3.08219   3.08456   3.10482   3.17170   3.17746   3.22883   3.27826   3.30995
   3.33367   3.33649   3.37125   3.42199   3.44717   3.48803   3.53481   3.55227
   3.58665   3.58883   3.61432   3.61581   3.62658   3.73805   3.74995   3.77689
   3.78636
 kpt#   7, nband=105, wtk=  0.04688, kpt=  0.5000  0.5000  0.0000 (reduced coord)
  -0.07091  -0.07091   0.11156   0.11156   0.23972   0.23972   0.58734   0.58734
   0.62885   0.62885   0.68567   0.68567   0.68978   0.68978   0.91381   0.91381
   0.94070   0.94070   0.96363   0.96363   0.99616   0.99616   1.16663   1.16663
   1.30497   1.30497   1.47023   1.47023   1.47407   1.47407   1.54950   1.54950
   1.57185   1.57185   1.68014   1.68014   1.72234   1.72234   1.75413   1.75413
   1.89195   1.89195   2.02135   2.02135   2.04025   2.04025   2.09713   2.09713
   2.23958   2.23958   2.31076   2.31076   2.31925   2.31925   2.32045   2.32045
   2.34855   2.34855   2.44073   2.44073   2.47993   2.47993   2.48740   2.48740
   2.77804   2.77804   2.79247   2.79247   2.80341   2.80341   2.89417   2.89417
   2.90466   2.90466   2.92263   2.92263   2.99761   2.99761   3.01923   3.01923
   3.03205   3.03205   3.04920   3.04920   3.12815   3.12815   3.12971   3.12971
   3.23880   3.23880   3.24184   3.24184   3.34634   3.34634   3.52075   3.52075
   3.57485   3.57485   3.61101   3.61101   3.61846   3.61846   3.68539   3.68539
   3.72939
 kpt#   8, nband=105, wtk=  0.09375, kpt= -0.2500  0.5000  0.2500 (reduced coord)
  -0.06442  -0.06442   0.07299   0.07299   0.37348   0.37348   0.40079   0.40079
   0.60943   0.60943   0.69868   0.69868   0.82294   0.82294   0.89576   0.89576
   0.91673   0.91673   0.95471   0.95471   1.08992   1.08992   1.23469   1.23469
   1.23727   1.23727   1.27476   1.27476   1.43627   1.43627   1.56847   1.56847
   1.62212   1.62212   1.70475   1.70475   1.81554   1.81554   1.83509   1.83509
   1.93289   1.93289   1.97007   1.97007   2.01802   2.01802   2.05868   2.05868
   2.25056   2.25056   2.27086   2.27086   2.29289   2.29289   2.31968   2.31968
   2.44349   2.44349   2.44609   2.44609   2.55028   2.55028   2.58499   2.58499
   2.61595   2.61595   2.61755   2.61755   2.82418   2.82418   2.83247   2.83247
   2.92430   2.92430   2.99137   2.99137   3.00078   3.00078   3.03058   3.03058
   3.04867   3.04867   3.05519   3.05519   3.22506   3.22506   3.24154   3.24154
   3.24899   3.24899   3.28374   3.28374   3.41704   3.41704   3.47932   3.47932
   3.48919   3.48919   3.49401   3.49401   3.56672   3.56672   3.61975   3.61975
   3.73391
 Total charge density [el/Bohr^3]
,     Maximum=    8.6900E-02  at reduced coord.    0.1000    0.1000    0.7000
,Next maximum=    8.6900E-02  at reduced coord.    0.1500    0.1500    0.5500
,     Minimum=    3.2324E-03  at reduced coord.    0.5000    0.5000    0.5000
,Next minimum=    3.2324E-03  at reduced coord.    0.7500    0.7500    0.7500
,  Integrated=    8.0000E+00

================================================================================
== DATASET  3 ==================================================================
-   nproc =    1

 mkfilename : getden/=0, take file _DEN from output of DATASET   1.

 Exchange-correlation functional for the present dataset will be:
  LDA: new Teter (4/93) with spin-polarized option - ixc=1
 Citation for XC functional:
  S. Goedecker, M. Teter, J. Huetter, PRB 54, 1703 (1996)

 Real(R)+Recip(G) space primitive vectors, cartesian coordinates (Bohr,Bohr^-1):
 R(1)=  0.0000000  5.1085000  5.1085000  G(1)= -0.0978761  0.0978761  0.0978761
 R(2)=  5.1085000  0.0000000  5.1085000  G(2)=  0.0978761 -0.0978761  0.0978761
 R(3)=  5.1085000  5.1085000  0.0000000  G(3)=  0.0978761  0.0978761 -0.0978761
 Unit cell volume ucvol=  2.6663072E+02 bohr^3
 Angles (23,13,12)=  6.00000000E+01  6.00000000E+01  6.00000000E+01 degrees

 getcut: wavevector=  0.0000  0.0000  0.0000  ngfft=  20  20  20
         ecut(hartree)=      8.000   => boxcut(ratio)=   2.17426
--------------------------------------------------------------------------------

P newkpt: treating     15 bands with npw=     290 for ikpt=   1 by node    0
P newkpt: treating     15 bands with npw=     293 for ikpt=   2 by node    0
P newkpt: treating     15 bands with npw=     284 for ikpt=   3 by node    0
P newkpt: treating     15 bands with npw=     295 for ikpt=   4 by node    0
P newkpt: treating     15 bands with npw=     295 for ikpt=   5 by node    0
P newkpt: treating     15 bands with npw=     297 for ikpt=   6 by node    0
P newkpt: treating     15 bands with npw=     289 for ikpt=   7 by node    0
P newkpt: treating     15 bands with npw=     283 for ikpt=   8 by node    0
P newkpt: treating     15 bands with npw=     282 for ikpt=   9 by node    0
P newkpt: treating     15 bands with npw=     288 for ikpt=  10 by node    0
P newkpt: treating     15 bands with npw=     292 for ikpt=  11 by node    0
P newkpt: treating     15 bands with npw=     289 for ikpt=  12 by node    0
P newkpt: treating     15 bands with npw=     293 for ikpt=  13 by node    0
P newkpt: treating     15 bands with npw=     286 for ikpt=  14 by node    0
P newkpt: treating     15 bands with npw=     287 for ikpt=  15 by node    0
P newkpt: treating     15 bands with npw=     297 for ikpt=  16 by node    0
P newkpt: treating     15 bands with npw=     293 for ikpt=  17 by node    0
P newkpt: treating     15 bands with npw=     295 for ikpt=  18 by node    0
P newkpt: treating     15 bands with npw=     288 for ikpt=  19 by node    0
P newkpt: treating     15 bands with npw=     285 for ikpt=  20 by node    0
P newkpt: treating     15 bands with npw=     297 for ikpt=  21 by node    0
P newkpt: treating     15 bands with npw=     292 for ikpt=  22 by node    0
P newkpt: treating     15 bands with npw=     287 for ikpt=  23 by node    0
P newkpt: treating     15 bands with npw=     285 for ikpt=  24 by node    0
P newkpt: treating     15 bands with npw=     285 for ikpt=  25 by node    0
P newkpt: treating     15 bands with npw=     285 for ikpt=  26 by node    0
P newkpt: treating     15 bands with npw=     285 for ikpt=  27 by node    0
P newkpt: treating     15 bands with npw=     283 for ikpt=  28 by node    0
P newkpt: treating     15 bands with npw=     288 for ikpt=  29 by node    0
P newkpt: treating     15 bands with npw=     289 for ikpt=  30 by node    0
P newkpt: treating     15 bands with npw=     282 for ikpt=  31 by node    0
P newkpt: treating     15 bands with npw=     285 for ikpt=  32 by node    0
P newkpt: treating     15 bands with npw=     283 for ikpt=  33 by node    0
P newkpt: treating     15 bands with npw=     287 for ikpt=  34 by node    0
P newkpt: treating     15 bands with npw=     293 for ikpt=  35 by node    0
P newkpt: treating     15 bands with npw=     288 for ikpt=  36 by node    0
P newkpt: treating     15 bands with npw=     285 for ikpt=  37 by node    0
P newkpt: treating     15 bands with npw=     283 for ikpt=  38 by node    0
P newkpt: treating     15 bands with npw=     287 for ikpt=  39 by node    0
P newkpt: treating     15 bands with npw=     281 for ikpt=  40 by node    0
P newkpt: treating     15 bands with npw=     294 for ikpt=  41 by node    0
P newkpt: treating     15 bands with npw=     286 for ikpt=  42 by node    0
P newkpt: treating     15 bands with npw=     283 for ikpt=  43 by node    0
P newkpt: treating     15 bands with npw=     286 for ikpt=  44 by node    0
P newkpt: treating     15 bands with npw=     285 for ikpt=  45 by node    0
P newkpt: treating     15 bands with npw=     281 for ikpt=  46 by node    0
P newkpt: treating     15 bands with npw=     288 for ikpt=  47 by node    0
P newkpt: treating     15 bands with npw=     295 for ikpt=  48 by node    0
P newkpt: treating     15 bands with npw=     293 for ikpt=  49 by node    0
P newkpt: treating     15 bands with npw=     288 for ikpt=  50 by node    0
 newkpt: prtvol=0 or 1, do not print more k-points.


================================================================================
 prteigrs : about to open file tbs_1o_DS3_EIG
 Non-SCF case, kpt    1 (  0.02750  0.05250  0.07750), residuals and eigenvalues=
  1.10E-09  3.84E-09  2.81E-09  1.06E-09  1.87E-09  8.50E-10  1.77E-09  4.97E-10
  5.32E-09  2.57E-09  2.18E-09  7.34E-10  1.32E-09  4.73E-09  5.71E-09
 -2.2347E-01  2.0058E-01  2.0989E-01  2.1606E-01  3.0934E-01  3.1923E-01
  3.1969E-01  3.5332E-01  4.9406E-01  5.0775E-01  5.0942E-01  6.2710E-01
  6.3266E-01  6.4651E-01  7.8740E-01
 Non-SCF case, kpt    2 (  0.27750  0.05250  0.07750), residuals and eigenvalues=
  6.51E-09  2.24E-09  2.87E-09  5.03E-09  2.97E-09  5.78E-09  2.09E-09  2.16E-09
  1.37E-09  2.66E-09  2.78E-09  2.42E-09  5.35E-08  5.14E-07  3.27E-05
 -1.9727E-01  8.2985E-02  1.6911E-01  1.9742E-01  3.0600E-01  3.3705E-01
  3.5595E-01  4.3754E-01  4.6894E-01  5.1769E-01  5.5657E-01  6.3886E-01
  7.2403E-01  7.7383E-01  8.4866E-01
  prteigrs : nnsclo,ikpt=   50    2 max resid (incl. the buffer)=  3.27408E-05
 Non-SCF case, kpt    3 ( -0.47250  0.05250  0.07750), residuals and eigenvalues=
  2.64E-09  1.40E-09  1.82E-09  1.65E-09  4.29E-09  6.65E-09  5.76E-09  1.83E-09
  8.68E-10  1.58E-09  4.18E-09  5.81E-09  1.71E-09  3.15E-09  3.09E-05
 -1.3646E-01 -3.9723E-02  1.5649E-01  1.7059E-01  2.8716E-01  3.3703E-01
  3.4808E-01  5.0359E-01  5.7248E-01  5.9137E-01  6.2704E-01  6.5760E-01
  6.7429E-01  7.0495E-01  9.1560E-01
  prteigrs : nnsclo,ikpt=   50    3 max resid (incl. the buffer)=  3.09276E-05
 Non-SCF case, kpt    4 ( -0.22250  0.05250  0.07750), residuals and eigenvalues=
  2.88E-09  2.18E-09  1.87E-09  1.81E-09  1.21E-09  9.72E-10  2.19E-09  8.68E-10
  3.25E-09  2.82E-09  1.86E-09  9.70E-09  3.92E-07  3.64E-06  1.34E-04
 -1.8995E-01  6.2143E-02  1.7110E-01  1.8615E-01  3.0160E-01  3.3687E-01
  3.6280E-01  4.3694E-01  4.9657E-01  5.2338E-01  5.5101E-01  6.6157E-01
  7.4557E-01  7.8774E-01  8.3461E-01
[...]
   0.0275 -0.1975  0.3275    1  3.32631E-05 kpt; spin; max resid(k); each band:
  4.63E-09 7.42E-10 3.29E-09 3.15E-09 4.15E-09 1.27E-09 1.03E-09 7.83E-09
  1.41E-09 7.70E-09 2.77E-09 1.69E-08 1.02E-08 5.04E-06 3.33E-05
   0.2775 -0.1975  0.3275    1  4.13527E-05 kpt; spin; max resid(k); each band:
  3.14E-09 5.59E-09 5.86E-09 3.04E-09 3.33E-09 4.29E-09 4.76E-09 6.22E-09
  2.88E-09 1.15E-09 5.50E-09 1.12E-08 2.63E-09 1.31E-06 4.14E-05
  -0.4725 -0.1975  0.3275    1  1.71892E-04 kpt; spin; max resid(k); each band:
  3.39E-09 9.93E-09 5.95E-10 3.77E-09 6.67E-09 2.01E-09 3.90E-09 3.51E-09
  5.15E-09 4.96E-09 2.21E-09 6.50E-09 1.05E-06 1.27E-05 1.72E-04
  -0.2225 -0.1975  0.3275    1  1.47978E-04 kpt; spin; max resid(k); each band:
  3.07E-09 1.80E-09 8.82E-09 3.47E-09 2.26E-09 3.47E-09 1.34E-09 4.49E-09
  2.65E-09 6.74E-10 7.11E-09 2.03E-09 7.23E-09 4.23E-06 1.48E-04
   0.0275  0.0525 -0.4225    1  9.74421E-07 kpt; spin; max resid(k); each band:
  1.07E-09 7.38E-10 1.66E-09 5.19E-09 9.53E-09 1.49E-09 1.42E-09 2.22E-09
  3.09E-09 1.05E-09 1.12E-09 5.73E-09 6.55E-09 5.15E-09 9.74E-07
   0.2775  0.0525 -0.4225    1  2.63944E-03 kpt; spin; max resid(k); each band:
  2.74E-09 2.69E-09 3.82E-09 2.53E-09 4.15E-09 8.97E-09 2.61E-09 5.78E-09
  2.67E-09 7.77E-09 3.42E-09 9.33E-09 1.02E-07 8.09E-05 2.64E-03
  -0.4725  0.0525 -0.4225    1  9.19292E-05 kpt; spin; max resid(k); each band:
  1.68E-09 9.26E-09 7.04E-10 6.57E-10 2.94E-09 4.66E-09 5.56E-09 9.69E-09
  7.00E-09 1.62E-09 7.41E-09 1.36E-09 2.18E-09 8.03E-09 9.19E-05
  -0.2225  0.0525 -0.4225    1  4.16399E-05 kpt; spin; max resid(k); each band:
  4.82E-09 6.51E-09 1.97E-09 8.15E-09 1.92E-09 6.67E-09 8.02E-09 1.05E-09
  3.00E-09 8.21E-10 2.03E-09 5.42E-09 1.47E-09 1.35E-07 4.16E-05
   0.0275  0.3025 -0.4225    1  9.77391E-05 kpt; spin; max resid(k); each band:
  1.62E-09 8.34E-09 5.90E-09 7.83E-10 1.33E-09 7.19E-09 5.65E-09 1.33E-09
  3.84E-09 2.41E-09 6.15E-09 4.33E-09 3.11E-07 8.54E-05 9.77E-05
   0.2775  0.3025 -0.4225    1  2.34638E-04 kpt; spin; max resid(k); each band:
  5.20E-09 5.74E-09 1.42E-09 3.23E-09 9.98E-10 3.06E-09 6.26E-09 5.67E-09
  2.66E-09 4.43E-09 7.51E-08 2.98E-08 3.31E-06 7.13E-05 2.35E-04
  -0.4725  0.3025 -0.4225    1  7.61377E-04 kpt; spin; max resid(k); each band:
  9.63E-09 8.50E-10 2.41E-09 2.41E-09 1.85E-09 1.46E-09 3.14E-09 6.77E-09
  9.08E-09 1.74E-09 6.13E-09 9.94E-09 3.36E-08 6.59E-05 7.61E-04
  -0.2225  0.3025 -0.4225    1  1.34665E-04 kpt; spin; max resid(k); each band:
  5.11E-09 9.07E-09 3.40E-09 7.01E-09 1.43E-09 2.72E-09 8.11E-09 3.14E-09
  3.97E-09 3.14E-09 2.61E-09 4.34E-09 1.44E-07 6.99E-06 1.35E-04
   0.0275 -0.4475 -0.4225    1  7.99236E-06 kpt; spin; max resid(k); each band:
  1.66E-09 3.73E-09 5.99E-09 9.67E-09 7.08E-09 2.17E-09 3.24E-09 2.56E-09
  1.87E-09 2.38E-09 6.30E-09 9.34E-09 8.81E-09 4.68E-09 7.99E-06
   0.2775 -0.4475 -0.4225    1  1.23604E-04 kpt; spin; max resid(k); each band:
  3.13E-09 8.78E-09 1.64E-09 5.35E-09 6.78E-09 9.53E-09 3.25E-09 8.65E-09
  9.15E-09 9.09E-10 6.45E-09 7.02E-09 2.47E-08 1.24E-04 8.25E-05
  -0.4725 -0.4475 -0.4225    1  1.09105E-06 kpt; spin; max resid(k); each band:
  2.78E-09 1.39E-09 3.23E-09 5.72E-09 2.00E-09 3.66E-09 5.08E-09 4.01E-09
  4.16E-09 3.09E-09 2.55E-09 1.21E-09 3.57E-09 8.43E-09 1.09E-06
  -0.2225 -0.4475 -0.4225    1  1.46764E-05 kpt; spin; max resid(k); each band:
  3.33E-09 1.57E-09 2.63E-09 8.20E-09 8.54E-09 3.50E-09 4.33E-10 1.23E-09
  4.02E-09 8.73E-10 6.56E-09 2.76E-09 1.70E-09 4.08E-08 1.47E-05
   0.0275 -0.1975 -0.4225    1  7.58999E-06 kpt; spin; max resid(k); each band:
  2.39E-09 5.42E-09 3.54E-09 5.98E-09 1.44E-09 6.62E-09 5.15E-09 4.56E-09
  6.51E-10 2.72E-09 1.56E-09 3.53E-09 1.92E-09 1.54E-08 7.59E-06
   0.2775 -0.1975 -0.4225    1  5.09134E-05 kpt; spin; max resid(k); each band:
  2.70E-09 3.72E-09 2.00E-09 3.15E-09 1.25E-09 1.53E-09 7.10E-09 2.08E-09
  1.31E-09 3.47E-09 4.15E-09 2.27E-08 1.97E-07 1.46E-06 5.09E-05
  -0.4725 -0.1975 -0.4225    1  1.69958E-05 kpt; spin; max resid(k); each band:
  5.14E-09 7.87E-09 1.15E-09 3.08E-09 5.59E-09 1.08E-09 3.62E-09 2.62E-09
  5.31E-09 1.94E-09 1.48E-09 4.85E-09 4.75E-09 3.37E-07 1.70E-05
  -0.2225 -0.1975 -0.4225    1  1.63520E-04 kpt; spin; max resid(k); each band:
  1.14E-09 6.47E-10 3.36E-09 2.34E-09 3.34E-09 6.27E-09 1.87E-09 8.85E-09
  2.95E-09 4.69E-09 3.14E-09 5.82E-09 1.16E-08 2.65E-07 1.64E-04
   0.0275  0.0525 -0.1725    1  3.32216E-04 kpt; spin; max resid(k); each band:
  1.01E-09 9.08E-09 1.31E-09 5.38E-09 1.14E-09 1.52E-09 6.44E-09 8.19E-09
  1.79E-09 1.45E-09 1.51E-09 5.93E-09 3.00E-09 2.08E-08 3.32E-04
   0.2775  0.0525 -0.1725    1  3.73521E-05 kpt; spin; max resid(k); each band:
  1.27E-09 1.69E-09 5.28E-10 6.15E-10 2.46E-09 1.11E-09 4.30E-09 7.87E-09
  5.28E-10 2.99E-09 2.37E-09 5.07E-09 9.34E-09 1.59E-06 3.74E-05
 outwf : prtvol=0 or 1, do not print more k-points.

 reduced coordinates (array xred) for    2 atoms
       0.000000000000      0.000000000000      0.000000000000
       0.250000000000      0.250000000000      0.250000000000

 cartesian coordinates (angstrom) at end:
    1      0.00000000000000     0.00000000000000     0.00000000000000
    2      1.35165088504101     1.35165088504101     1.35165088504101
 length scales= 10.217000000000 10.217000000000 10.217000000000 bohr
              =  5.406603540164  5.406603540164  5.406603540164 angstroms
 prteigrs : about to open file tbs_1o_DS3_EIG
 Eigenvalues (hartree) for nkpt=  64  k points:
 kpt#   1, nband= 15, wtk=  0.01563, kpt=  0.0275  0.0525  0.0775 (reduced coord)
  -0.22347   0.20058   0.20989   0.21606   0.30934   0.31923   0.31969   0.35332
   0.49406   0.50775   0.50942   0.62710   0.63266   0.64651   0.78740
 kpt#   2, nband= 15, wtk=  0.01563, kpt=  0.2775  0.0525  0.0775 (reduced coord)
  -0.19727   0.08299   0.16911   0.19742   0.30600   0.33705   0.35595   0.43754
   0.46894   0.51769   0.55657   0.63886   0.72403   0.77383   0.84866
 kpt#   3, nband= 15, wtk=  0.01563, kpt= -0.4725  0.0525  0.0775 (reduced coord)
  -0.13646  -0.03972   0.15649   0.17059   0.28716   0.33703   0.34808   0.50359
   0.57248   0.59137   0.62704   0.65760   0.67429   0.70495   0.91560
 kpt#   4, nband= 15, wtk=  0.01563, kpt= -0.2225  0.0525  0.0775 (reduced coord)
  -0.18995   0.06214   0.17110   0.18615   0.30160   0.33687   0.36280   0.43694
   0.49657   0.52338   0.55101   0.66157   0.74557   0.78774   0.83461
 kpt#   5, nband= 15, wtk=  0.01563, kpt=  0.0275  0.3025  0.0775 (reduced coord)
  -0.18957   0.06106   0.17045   0.18667   0.30137   0.33716   0.36233   0.43835
   0.49547   0.52493   0.55070   0.66270   0.74623   0.78891   0.83266
 kpt#   6, nband= 15, wtk=  0.01563, kpt=  0.2775  0.3025  0.0775 (reduced coord)
  -0.18285   0.07951   0.14132   0.15047   0.26787   0.33708   0.41330   0.42616
   0.52465   0.55503   0.62562   0.67750   0.70798   0.75490   0.82608
 kpt#   7, nband= 15, wtk=  0.01563, kpt= -0.4725  0.3025  0.0775 (reduced coord)
  -0.12351  -0.01374   0.08305   0.12533   0.28375   0.36343   0.40836   0.47524
   0.57018   0.62408   0.65649   0.70652   0.71790   0.80266   0.87621
 kpt#   8, nband= 15, wtk=  0.01563, kpt= -0.2225  0.3025  0.0775 (reduced coord)
  -0.14016   0.00638   0.07267   0.15272   0.31794   0.37009   0.40769   0.44682
   0.50315   0.55528   0.69292   0.71742   0.72584   0.80647   0.84485
 kpt#   9, nband= 15, wtk=  0.01563, kpt=  0.0275 -0.4475  0.0775 (reduced coord)
  -0.13661  -0.03956   0.15675   0.17062   0.28706   0.33695   0.34811   0.50346
   0.57150   0.59256   0.62757   0.65670   0.67401   0.70575   0.91415
 kpt#  10, nband= 15, wtk=  0.01563, kpt=  0.2775 -0.4475  0.0775 (reduced coord)
  -0.12021  -0.02310   0.08297   0.13098   0.29093   0.38411   0.40420   0.45584
   0.54825   0.62350   0.64904   0.68968   0.73142   0.83348   0.87737
 kpt#  11, nband= 15, wtk=  0.01563, kpt= -0.4725 -0.4475  0.0775 (reduced coord)
  -0.07165  -0.06868   0.09959   0.11171   0.24367   0.25855   0.56747   0.57266
   0.60444   0.61132   0.69339   0.70100   0.71533   0.72461   0.88500
 kpt#  12, nband= 15, wtk=  0.01563, kpt= -0.2225 -0.4475  0.0775 (reduced coord)
  -0.12452  -0.01283   0.08385   0.12587   0.28417   0.36393   0.40701   0.47355
   0.57174   0.62223   0.65710   0.70545   0.71630   0.80177   0.87609
 kpt#  13, nband= 15, wtk=  0.01563, kpt=  0.0275 -0.1975  0.0775 (reduced coord)
  -0.19766   0.08410   0.16990   0.19723   0.30603   0.33651   0.35630   0.43635
   0.46994   0.51640   0.55651   0.63782   0.72328   0.77207   0.85096
 kpt#  14, nband= 15, wtk=  0.01563, kpt=  0.2775 -0.1975  0.0775 (reduced coord)
  -0.15399   0.02337   0.08479   0.16204   0.32786   0.35397   0.39798   0.42983
   0.49261   0.58962   0.67079   0.68822   0.71084   0.81189   0.82086
 kpt#  15, nband= 15, wtk=  0.01563, kpt= -0.4725 -0.1975  0.0775 (reduced coord)
  -0.12110  -0.02248   0.08394   0.13149   0.29140   0.38315   0.40436   0.45425
   0.54985   0.62304   0.64816   0.68921   0.72925   0.83233   0.87705
 kpt#  16, nband= 15, wtk=  0.01563, kpt= -0.2225 -0.1975  0.0775 (reduced coord)
  -0.18364   0.08096   0.14210   0.15128   0.26845   0.33841   0.41180   0.42459
   0.52282   0.55384   0.62399   0.67606   0.70695   0.75389   0.82804
 kpt#  17, nband= 15, wtk=  0.01563, kpt=  0.0275  0.0525  0.3275 (reduced coord)
  -0.18214   0.03966   0.17302   0.18653   0.29105   0.34168   0.35458   0.46827
   0.49835   0.52946   0.54344   0.68718   0.75819   0.79160   0.83230
 kpt#  18, nband= 15, wtk=  0.01563, kpt=  0.2775  0.0525  0.3275 (reduced coord)
  -0.17489   0.06647   0.13336   0.14338   0.26077   0.32195   0.42972   0.44611
   0.53851   0.56846   0.64494   0.69094   0.71719   0.76036   0.80814
 kpt#  19, nband= 15, wtk=  0.01563, kpt= -0.4725  0.0525  0.3275 (reduced coord)
  -0.11542  -0.01995   0.07898   0.12261   0.26760   0.34076   0.44451   0.49177
   0.57847   0.63383   0.65729   0.70973   0.73194   0.80218   0.85308
 kpt#  20, nband= 15, wtk=  0.01563, kpt= -0.2225  0.0525  0.3275 (reduced coord)
  -0.13406  -0.00334   0.06968   0.15414   0.30401   0.38501   0.43152   0.44122
   0.50008   0.53478   0.68421   0.73684   0.74740   0.80311   0.86063
 kpt#  21, nband= 15, wtk=  0.01563, kpt=  0.0275  0.3025  0.3275 (reduced coord)
  -0.16690   0.05379   0.13253   0.13494   0.24852   0.30442   0.45848   0.46386
   0.55338   0.57422   0.66628   0.71233   0.71997   0.75626   0.81342
 kpt#  22, nband= 15, wtk=  0.01563, kpt=  0.2775  0.3025  0.3275 (reduced coord)
  -0.18177   0.03860   0.17384   0.18615   0.29031   0.34177   0.35428   0.46982
   0.49992   0.52812   0.54317   0.68854   0.75878   0.79053   0.83411
 kpt#  23, nband= 15, wtk=  0.01563, kpt= -0.4725  0.3025  0.3275 (reduced coord)
  -0.14057  -0.00236   0.08221   0.16309   0.30277   0.38068   0.40466   0.45920
   0.49028   0.55041   0.65686   0.72187   0.75236   0.80503   0.83155
 kpt#  24, nband= 15, wtk=  0.01563, kpt= -0.2225  0.3025  0.3275 (reduced coord)
  -0.10424  -0.03216   0.06961   0.12606   0.26085   0.35236   0.46311   0.48658
   0.56653   0.59495   0.69681   0.72346   0.73717   0.82337   0.84532
 kpt#  25, nband= 15, wtk=  0.01563, kpt=  0.0275 -0.4475  0.3275 (reduced coord)
  -0.10415  -0.03231   0.06931   0.12607   0.26160   0.35419   0.46084   0.48667
   0.56407   0.59523   0.69643   0.72520   0.73657   0.82378   0.84784
 kpt#  26, nband= 15, wtk=  0.01563, kpt=  0.2775 -0.4475  0.3275 (reduced coord)
  -0.13344  -0.00406   0.06912   0.15418   0.30275   0.38705   0.43257   0.44194
   0.49923   0.53275   0.68481   0.73774   0.74935   0.80379   0.85836
 kpt#  27, nband= 15, wtk=  0.01563, kpt= -0.4725 -0.4475  0.3275 (reduced coord)
  -0.12035  -0.03169   0.09001   0.14467   0.28387   0.38944   0.41469   0.44181
   0.55282   0.58397   0.65564   0.68811   0.71944   0.83314   0.89358
 kpt#  28, nband= 15, wtk=  0.01563, kpt= -0.2225 -0.4475  0.3275 (reduced coord)
  -0.08479  -0.04525   0.06558   0.08820   0.35914   0.36176   0.38844   0.44766
   0.57009   0.62177   0.68488   0.73308   0.78511   0.83361   0.85935
 kpt#  29, nband= 15, wtk=  0.01563, kpt=  0.0275 -0.1975  0.3275 (reduced coord)
  -0.14120  -0.00163   0.08281   0.16327   0.30365   0.37875   0.40506   0.45707
   0.49105   0.55218   0.65649   0.71967   0.75155   0.80443   0.83311
 kpt#  30, nband= 15, wtk=  0.01563, kpt=  0.2775 -0.1975  0.3275 (reduced coord)
  -0.11564  -0.01966   0.07935   0.12277   0.26653   0.33893   0.44674   0.49174
   0.58092   0.63374   0.65752   0.70770   0.73264   0.80166   0.85098
 kpt#  31, nband= 15, wtk=  0.01563, kpt= -0.4725 -0.1975  0.3275 (reduced coord)
  -0.07643  -0.05395   0.07209   0.08171   0.33959   0.34370   0.42000   0.45355
   0.58994   0.62424   0.68288   0.71477   0.80563   0.84058   0.85688
 kpt#  32, nband= 15, wtk=  0.01563, kpt= -0.2225 -0.1975  0.3275 (reduced coord)
  -0.12102  -0.03145   0.09128   0.14498   0.28428   0.38806   0.41339   0.44213
   0.55400   0.58547   0.65474   0.68589   0.71728   0.83215   0.89245
 kpt#  33, nband= 15, wtk=  0.01563, kpt=  0.0275  0.0525 -0.4225 (reduced coord)
  -0.14235  -0.03346   0.16614   0.17312   0.28053   0.33844   0.34494   0.49921
   0.56181   0.59332   0.62901   0.64754   0.67891   0.71556   0.88213
 kpt#  34, nband= 15, wtk=  0.01563, kpt=  0.2775  0.0525 -0.4225 (reduced coord)
  -0.11231  -0.03169   0.07533   0.13444   0.28195   0.39880   0.41901   0.45185
   0.53479   0.59442   0.67769   0.69284   0.74668   0.86414   0.87281
 kpt#  35, nband= 15, wtk=  0.01563, kpt= -0.4725  0.0525 -0.4225 (reduced coord)
  -0.08498  -0.05514   0.10637   0.10750   0.24652   0.25293   0.55652   0.57542
   0.61044   0.63103   0.67178   0.70196   0.70495   0.73584   0.86919
 kpt#  36, nband= 15, wtk=  0.01563, kpt= -0.2225  0.0525 -0.4225 (reduced coord)
  -0.13758   0.00215   0.09558   0.13183   0.27666   0.35221   0.41404   0.45773
   0.60535   0.61131   0.66316   0.66800   0.71414   0.78607   0.84646
 kpt#  37, nband= 15, wtk=  0.01563, kpt=  0.0275  0.3025 -0.4225 (reduced coord)
  -0.10445  -0.03469   0.06578   0.13215   0.26880   0.39098   0.44016   0.46593
   0.54245   0.57431   0.70916   0.71524   0.74517   0.85339   0.87376
 kpt#  38, nband= 15, wtk=  0.01563, kpt=  0.2775  0.3025 -0.4225 (reduced coord)
  -0.12709  -0.00897   0.06108   0.15318   0.29154   0.41328   0.44082   0.45086
   0.48542   0.51245   0.70918   0.72869   0.77029   0.82145   0.85187
 kpt#  39, nband= 15, wtk=  0.01563, kpt= -0.4725  0.3025 -0.4225 (reduced coord)
  -0.11244  -0.03191   0.07553   0.13519   0.28160   0.39930   0.42055   0.44983
   0.53512   0.59205   0.67762   0.69361   0.74609   0.86218   0.87338
 kpt#  40, nband= 15, wtk=  0.01563, kpt= -0.2225  0.3025 -0.4225 (reduced coord)
  -0.08434  -0.04599   0.06263   0.09137   0.35351   0.37114   0.40485   0.42791
   0.56185   0.62458   0.67949   0.74218   0.78077   0.83982   0.87242
 kpt#  41, nband= 15, wtk=  0.01563, kpt=  0.0275 -0.4475 -0.4225 (reduced coord)
  -0.09916  -0.04035   0.11143   0.11206   0.23796   0.25121   0.55738   0.56471
   0.64186   0.64871   0.65380   0.66804   0.71626   0.73166   0.85950
 kpt#  42, nband= 15, wtk=  0.01563, kpt=  0.2775 -0.4475 -0.4225 (reduced coord)
  -0.10459  -0.03475   0.06571   0.13274   0.26877   0.39282   0.44036   0.46376
   0.54277   0.57185   0.70859   0.71670   0.74464   0.85567   0.87259
 kpt#  43, nband= 15, wtk=  0.01563, kpt= -0.4725 -0.4475 -0.4225 (reduced coord)
  -0.14276  -0.03302   0.16675   0.17348   0.27995   0.33872   0.34456   0.49899
   0.56224   0.59153   0.62716   0.64943   0.68034   0.71519   0.88053
 kpt#  44, nband= 15, wtk=  0.01563, kpt= -0.2225 -0.4475 -0.4225 (reduced coord)
  -0.14576   0.00580   0.10795   0.14069   0.27937   0.37361   0.40059   0.42585
   0.60053   0.61101   0.64058   0.66441   0.70261   0.79053   0.84436
 kpt#  45, nband= 15, wtk=  0.01563, kpt=  0.0275 -0.1975 -0.4225 (reduced coord)
  -0.14546   0.00507   0.10786   0.14087   0.28009   0.37531   0.39887   0.42561
   0.59931   0.61045   0.64264   0.66318   0.70238   0.79135   0.84576
 kpt#  46, nband= 15, wtk=  0.01563, kpt=  0.2775 -0.1975 -0.4225 (reduced coord)
  -0.08420  -0.04614   0.06250   0.09149   0.35201   0.37267   0.40634   0.42641
   0.56184   0.62423   0.67978   0.74230   0.78092   0.83970   0.87295
 kpt#  47, nband= 15, wtk=  0.01563, kpt= -0.4725 -0.1975 -0.4225 (reduced coord)
  -0.13786   0.00273   0.09591   0.13182   0.27560   0.35051   0.41611   0.45781
   0.60700   0.61237   0.66355   0.66584   0.71452   0.78554   0.84491
 kpt#  48, nband= 15, wtk=  0.01563, kpt= -0.2225 -0.1975 -0.4225 (reduced coord)
  -0.16946   0.04374   0.09834   0.18175   0.32137   0.36283   0.38943   0.41995
   0.45473   0.60580   0.63218   0.66265   0.71795   0.77534   0.85163
 kpt#  49, nband= 15, wtk=  0.01563, kpt=  0.0275  0.0525 -0.1725 (reduced coord)
  -0.20554   0.10689   0.18534   0.20023   0.30398   0.33282   0.35017   0.43041
   0.47000   0.49651   0.55154   0.61733   0.70891   0.73873   0.87422
 kpt#  50, nband= 15, wtk=  0.01563, kpt=  0.2775  0.0525 -0.1725 (reduced coord)
  -0.16138   0.02988   0.09443   0.17248   0.32304   0.35493   0.40395   0.41538
   0.47825   0.59660   0.65293   0.67007   0.71822   0.79593   0.83442
 prteigrs : prtvol=0 or 1, do not print more k-points.

 Total charge density [el/Bohr^3]
,     Maximum=    8.6900E-02  at reduced coord.    0.1000    0.1000    0.7000
,Next maximum=    8.6900E-02  at reduced coord.    0.1500    0.1500    0.5500
,     Minimum=    3.2324E-03  at reduced coord.    0.5000    0.5000    0.5000
,Next minimum=    3.2324E-03  at reduced coord.    0.7500    0.7500    0.7500
,  Integrated=    8.0000E+00

================================================================================
== DATASET  4 ==================================================================
-   nproc =    1

 mkfilename : getwfk/=0, take file _WFK from output of DATASET   2.

 Exchange-correlation functional for the present dataset will be:
  LDA: new Teter (4/93) with spin-polarized option - ixc=1
 Citation for XC functional:
  S. Goedecker, M. Teter, J. Huetter, PRB 54, 1703 (1996)

 SCREENING: Calculation of the susceptibility and dielectric matrices

 Based on a program developped by R.W. Godby, V. Olevano, G. Onida, and L. Reining.
 Incorporated in ABINIT by V. Olevano, G.-M. Rignanese, and M. Torrent.
.Using double precision arithmetic ; gwpc =  8

 Real(R)+Recip(G) space primitive vectors, cartesian coordinates (Bohr,Bohr^-1):
 R(1)=  0.0000000  5.1085000  5.1085000  G(1)= -0.0978761  0.0978761  0.0978761
 R(2)=  5.1085000  0.0000000  5.1085000  G(2)=  0.0978761 -0.0978761  0.0978761
 R(3)=  5.1085000  5.1085000  0.0000000  G(3)=  0.0978761  0.0978761 -0.0978761
 Unit cell volume ucvol=  2.6663072E+02 bohr^3
 Angles (23,13,12)=  6.00000000E+01  6.00000000E+01  6.00000000E+01 degrees

--- Pseudopotential description ------------------------------------------------
- pspini: atom type   1  psp file is 14si.pspnc
- pspatm: opening atomic psp file    14si.pspnc
-  Troullier-Martins psp for element  Si        Thu Oct 27 17:31:21 EDT 1994
- 14.00000   4.00000    940714                znucl, zion, pspdat
    1    1    2    2      2001   0.00000      pspcod,pspxc,lmax,lloc,mmax,r2well
    0   5.907  14.692    1   2.0872718        l,e99.0,e99.9,nproj,rcpsp
   0.00000000   0.00000000   0.00000000   0.00000000     rms, ekb1, ekb2, epsatm
    1   2.617   4.181    1   2.0872718        l,e99.0,e99.9,nproj,rcpsp
   0.00000000   0.00000000   0.00000000   0.00000000     rms, ekb1, ekb2, epsatm
    2   0.000   0.000    0   2.0872718        l,e99.0,e99.9,nproj,rcpsp
   0.00000000   0.00000000   0.00000000   0.00000000     rms, ekb1, ekb2, epsatm
    1.80626423934776    0.22824404341771    1.17378968127746   rchrg,fchrg,qchrg
 pspatm: epsatm=    1.43386982
         --- l  ekb(1:nproj) -->
             0    3.287949
             1    1.849886
 pspatm: atomic psp has been read  and splines computed

--------------------------------------------------------------------------------

