
.Version 7.4.3 of ABINIT 
.(MPI version, prepared for a i686_cygwin_gnu4.7 computer) 

.Copyright (C) 1998-2013 ABINIT group . 
 ABINIT comes with ABSOLUTELY NO WARRANTY.
 It is free software, and you are welcome to redistribute it
 under certain conditions (GNU General Public License,
 see ~abinit/COPYING or http://www.gnu.org/copyleft/gpl.txt).

 ABINIT is a project of the Universite Catholique de Louvain,
 Corning Inc. and other collaborators, see ~abinit/doc/developers/contributors.txt .
 Please read ~abinit/doc/users/acknowledgments.html for suggested
 acknowledgments of the ABINIT effort.
 For more information, see http://www.abinit.org .

.Starting date : Mon  4 Jun 2018.
- ( at 13h02 )
  

 herald :  WARNING -
  The starting date is more than 3 years after the initial release
  of this version of ABINIT, namely Aug 2013.
  This version of ABINIT is not supported anymore.
  Action : please, switch to a more recent version of ABINIT.
- input  file    -> tbase4_8.in
- output file    -> tbase4_8.out
- root for input  files -> tbase4_xi
- root for output files -> tbase4_xo


 DATASET    1 : space group P4/m m m (#123); Bravais tP (primitive tetrag.)
================================================================================
 Values of the parameters that define the memory need for DATASET  1.
   intxc =         0  ionmov =         0    iscf =         7 xclevel =         1
  lmnmax =         3   lnmax =         3   mband =        11  mffmem =         1
P  mgfft =        60   mkmem =         6 mpssoang=         3     mpw =       532
  mqgrid =      3001   natom =         5    nfft =      8640    nkpt =         6
  nloalg =         4  nspden =         1 nspinor =         1  nsppol =         1
    nsym =        16  n1xccc =         0  ntypat =         1  occopt =         4
 For the susceptibility and dielectric matrices, or tddft :
   mgfft =        40  nbnd_in_blk=     6    nfft =      2560     npw =       121
================================================================================
P This job should need less than                       4.855 Mbytes of memory.
  Rough estimation (10% accuracy) of disk space for files :
_ WF disk file :      0.538 Mbytes ; DEN or POT disk file :      0.068 Mbytes.
================================================================================


 DATASET    2 : space group P4/n m m (#129); Bravais tP (primitive tetrag.)
================================================================================
 Values of the parameters that define the memory need for DATASET  2.
   intxc =         0  ionmov =         0    iscf =         7 xclevel =         1
  lmnmax =         3   lnmax =         3   mband =        12  mffmem =         1
P  mgfft =        72   mkmem =         6 mpssoang=         3     mpw =       608
  mqgrid =      3001   natom =         6    nfft =     10368    nkpt =         6
  nloalg =         4  nspden =         1 nspinor =         1  nsppol =         1
    nsym =        16  n1xccc =         0  ntypat =         1  occopt =         4
 For the susceptibility and dielectric matrices, or tddft :
   mgfft =        45  nbnd_in_blk=     6    nfft =      2880     npw =       141
================================================================================
P This job should need less than                       5.672 Mbytes of memory.
  Rough estimation (10% accuracy) of disk space for files :
_ WF disk file :      0.670 Mbytes ; DEN or POT disk file :      0.081 Mbytes.
================================================================================


 DATASET    3 : space group P4/m m m (#123); Bravais tP (primitive tetrag.)
================================================================================
 Values of the parameters that define the memory need for DATASET  3.
   intxc =         0  ionmov =         0    iscf =         7 xclevel =         1
  lmnmax =         3   lnmax =         3   mband =        15  mffmem =         1
P  mgfft =        80   mkmem =         6 mpssoang=         3     mpw =       684
  mqgrid =      3001   natom =         7    nfft =     11520    nkpt =         6
  nloalg =         4  nspden =         1 nspinor =         1  nsppol =         1
    nsym =        16  n1xccc =         0  ntypat =         1  occopt =         4
 For the susceptibility and dielectric matrices, or tddft :
   mgfft =        50  nbnd_in_blk=     6    nfft =      3200     npw =       151
================================================================================
P This job should need less than                       6.406 Mbytes of memory.
  Rough estimation (10% accuracy) of disk space for files :
_ WF disk file :      0.941 Mbytes ; DEN or POT disk file :      0.090 Mbytes.
================================================================================

--------------------------------------------------------------------------------
------------- Echo of variables that govern the present computation ------------
--------------------------------------------------------------------------------
-
- outvars: echo of selected default values                                      
-   accesswff0 =  0 , fftalg0 =112 , wfoptalg0 =  0
-
- outvars: echo of global parameters not present in the input file              
-  max_nthreads =    0
-
 -outvars: echo values of preprocessed input variables --------
            acell      7.5055909000E+00  7.5055909000E+00  7.5055909000E+00 Bohr
              amu      2.69815390E+01
      chksymbreak           0
             ecut      6.00000000E+00 Hartree
           iprcel          45
           jdtset        1    2    3
              kpt      0.00000000E+00  1.25000000E-01  0.00000000E+00
                       0.00000000E+00  3.75000000E-01  0.00000000E+00
                       1.25000000E-01  2.50000000E-01  0.00000000E+00
                       1.25000000E-01  5.00000000E-01  0.00000000E+00
                       2.50000000E-01  3.75000000E-01  0.00000000E+00
                       3.75000000E-01  5.00000000E-01  0.00000000E+00
         kptrlatt        4   -4    0      4    4    0      0    0    1
          kptrlen      3.00223636E+01
P           mkmem           6
            natom1          5
            natom2          6
            natom3          7
            nband1         11
            nband2         12
            nband3         15
           ndtset           3
            ngfft1         12      12      60
            ngfft2         12      12      72
            ngfft3         12      12      80
             nkpt           6
            nstep          10
             nsym          16
           ntypat           1
              occ1     2.000000  2.000000  2.000000  2.000000  2.000000  2.000000
                       2.000000  1.000000  0.000000  0.000000  0.000000
                       2.000000  2.000000  2.000000  2.000000  2.000000  2.000000
                       2.000000  1.000000  0.000000  0.000000  0.000000
                       2.000000  2.000000  2.000000  2.000000  2.000000  2.000000
                       2.000000  1.000000  0.000000  0.000000  0.000000
                       2.000000  2.000000  2.000000  2.000000  2.000000  2.000000
                       2.000000  1.000000  0.000000  0.000000  0.000000
                       2.000000  2.000000  2.000000  2.000000  2.000000  2.000000
                       2.000000  1.000000  0.000000  0.000000  0.000000
                       2.000000  2.000000  2.000000  2.000000  2.000000  2.000000
                       2.000000  1.000000  0.000000  0.000000  0.000000
              occ2     2.000000  2.000000  2.000000  2.000000  2.000000  2.000000
                       2.000000  2.000000  2.000000  0.000000  0.000000  0.000000
                       2.000000  2.000000  2.000000  2.000000  2.000000  2.000000
                       2.000000  2.000000  2.000000  0.000000  0.000000  0.000000
                       2.000000  2.000000  2.000000  2.000000  2.000000  2.000000
                       2.000000  2.000000  2.000000  0.000000  0.000000  0.000000
                       2.000000  2.000000  2.000000  2.000000  2.000000  2.000000
                       2.000000  2.000000  2.000000  0.000000  0.000000  0.000000
                       2.000000  2.000000  2.000000  2.000000  2.000000  2.000000
                       2.000000  2.000000  2.000000  0.000000  0.000000  0.000000
                       2.000000  2.000000  2.000000  2.000000  2.000000  2.000000
                       2.000000  2.000000  2.000000  0.000000  0.000000  0.000000
              occ3     2.000000  2.000000  2.000000  2.000000  2.000000  2.000000
                       2.000000  2.000000  2.000000  2.000000  1.000000  0.000000
                       0.000000  0.000000  0.000000
                       2.000000  2.000000  2.000000  2.000000  2.000000  2.000000
                       2.000000  2.000000  2.000000  2.000000  1.000000  0.000000
                       0.000000  0.000000  0.000000
                       2.000000  2.000000  2.000000  2.000000  2.000000  2.000000
                       2.000000  2.000000  2.000000  2.000000  1.000000  0.000000
                       0.000000  0.000000  0.000000
                       2.000000  2.000000  2.000000  2.000000  2.000000  2.000000
                       2.000000  2.000000  2.000000  2.000000  1.000000  0.000000
                       0.000000  0.000000  0.000000
                       2.000000  2.000000  2.000000  2.000000  2.000000  2.000000
                       2.000000  2.000000  2.000000  2.000000  1.000000  0.000000
                       0.000000  0.000000  0.000000
                       2.000000  2.000000  2.000000  2.000000  2.000000  2.000000
                       2.000000  2.000000  2.000000  2.000000  1.000000  0.000000
                       0.000000  0.000000  0.000000
           occopt           4
            rprim1     5.0000000000E-01 -5.0000000000E-01  0.0000000000E+00
                       5.0000000000E-01  5.0000000000E-01  0.0000000000E+00
                       0.0000000000E+00  0.0000000000E+00  3.5000000000E+00
            rprim2     5.0000000000E-01 -5.0000000000E-01  0.0000000000E+00
                       5.0000000000E-01  5.0000000000E-01  0.0000000000E+00
                       0.0000000000E+00  0.0000000000E+00  4.0000000000E+00
            rprim3     5.0000000000E-01 -5.0000000000E-01  0.0000000000E+00
                       5.0000000000E-01  5.0000000000E-01  0.0000000000E+00
                       0.0000000000E+00  0.0000000000E+00  4.5000000000E+00
           shiftk     -5.00000000E-01  5.00000000E-01  0.00000000E+00
          spgroup1        123
          spgroup2        129
          spgroup3        123
           symrel      1  0  0   0  1  0   0  0  1      -1  0  0   0 -1  0   0  0 -1
                      -1  0  0   0  1  0   0  0 -1       1  0  0   0 -1  0   0  0  1
                      -1  0  0   0 -1  0   0  0  1       1  0  0   0  1  0   0  0 -1
                       1  0  0   0 -1  0   0  0 -1      -1  0  0   0  1  0   0  0  1
                       0  1  0   1  0  0   0  0  1       0 -1  0  -1  0  0   0  0 -1
                       0 -1  0   1  0  0   0  0 -1       0  1  0  -1  0  0   0  0  1
                       0 -1  0  -1  0  0   0  0  1       0  1  0   1  0  0   0  0 -1
                       0  1  0  -1  0  0   0  0 -1       0 -1  0   1  0  0   0  0  1
            tnons1     0.0000000  0.0000000  0.0000000     0.0000000  0.0000000 -0.4285714
                       0.0000000  0.0000000 -0.4285714     0.0000000  0.0000000  0.0000000
                       0.0000000  0.0000000  0.0000000     0.0000000  0.0000000 -0.4285714
                       0.0000000  0.0000000 -0.4285714     0.0000000  0.0000000  0.0000000
                       0.0000000  0.0000000  0.0000000     0.0000000  0.0000000 -0.4285714
                       0.0000000  0.0000000 -0.4285714     0.0000000  0.0000000  0.0000000
                       0.0000000  0.0000000  0.0000000     0.0000000  0.0000000 -0.4285714
                       0.0000000  0.0000000 -0.4285714     0.0000000  0.0000000  0.0000000
            tnons2     0.0000000  0.0000000  0.0000000     0.5000000  0.5000000 -0.3750000
                       0.5000000  0.5000000 -0.3750000     0.0000000  0.0000000  0.0000000
                       0.0000000  0.0000000  0.0000000     0.5000000  0.5000000 -0.3750000
                       0.5000000  0.5000000 -0.3750000     0.0000000  0.0000000  0.0000000
                       0.0000000  0.0000000  0.0000000     0.5000000  0.5000000 -0.3750000
                       0.5000000  0.5000000 -0.3750000     0.0000000  0.0000000  0.0000000
                       0.0000000  0.0000000  0.0000000     0.5000000  0.5000000 -0.3750000
                       0.5000000  0.5000000 -0.3750000     0.0000000  0.0000000  0.0000000
            tnons3     0.0000000  0.0000000  0.0000000     0.0000000  0.0000000 -0.3333333
                       0.0000000  0.0000000 -0.3333333     0.0000000  0.0000000  0.0000000
                       0.0000000  0.0000000  0.0000000     0.0000000  0.0000000 -0.3333333
                       0.0000000  0.0000000 -0.3333333     0.0000000  0.0000000  0.0000000
                       0.0000000  0.0000000  0.0000000     0.0000000  0.0000000 -0.3333333
                       0.0000000  0.0000000 -0.3333333     0.0000000  0.0000000  0.0000000
                       0.0000000  0.0000000  0.0000000     0.0000000  0.0000000 -0.3333333
                       0.0000000  0.0000000 -0.3333333     0.0000000  0.0000000  0.0000000
           toldfe      1.00000000E-06 Hartree
            typat1     1  1  1  1  1
            typat2     1  1  1  1  1  1
            typat3     1  1  1  1  1  1  1
              wtk        0.12500    0.12500    0.25000    0.12500    0.25000    0.12500
           xangst1     0.0000000000E+00  0.0000000000E+00  0.0000000000E+00
                       0.0000000000E+00  1.9858938206E+00  1.9858938206E+00
                       0.0000000000E+00  0.0000000000E+00  3.9717876413E+00
                       0.0000000000E+00  1.9858938206E+00  5.9576814619E+00
                       0.0000000000E+00  0.0000000000E+00  7.9435752826E+00
           xangst2     0.0000000000E+00  0.0000000000E+00  0.0000000000E+00
                       0.0000000000E+00  1.9858938206E+00  1.9858938206E+00
                       0.0000000000E+00  0.0000000000E+00  3.9717876413E+00
                       0.0000000000E+00  1.9858938206E+00  5.9576814619E+00
                       0.0000000000E+00  0.0000000000E+00  7.9435752826E+00
                       0.0000000000E+00  1.9858938206E+00  9.9294691032E+00
           xangst3     0.0000000000E+00  0.0000000000E+00  0.0000000000E+00
                       0.0000000000E+00  1.9858938206E+00  1.9858938206E+00
                       0.0000000000E+00  0.0000000000E+00  3.9717876413E+00
                       0.0000000000E+00  1.9858938206E+00  5.9576814619E+00
                       0.0000000000E+00  0.0000000000E+00  7.9435752826E+00
                       0.0000000000E+00  1.9858938206E+00  9.9294691032E+00
                       0.0000000000E+00  0.0000000000E+00  1.1915362924E+01
            xcart1     0.0000000000E+00  0.0000000000E+00  0.0000000000E+00
                       0.0000000000E+00  3.7527954500E+00  3.7527954500E+00
                       0.0000000000E+00  0.0000000000E+00  7.5055909000E+00
                       0.0000000000E+00  3.7527954500E+00  1.1258386350E+01
                       0.0000000000E+00  0.0000000000E+00  1.5011181800E+01
            xcart2     0.0000000000E+00  0.0000000000E+00  0.0000000000E+00
                       0.0000000000E+00  3.7527954500E+00  3.7527954500E+00
                       0.0000000000E+00  0.0000000000E+00  7.5055909000E+00
                       0.0000000000E+00  3.7527954500E+00  1.1258386350E+01
                       0.0000000000E+00  0.0000000000E+00  1.5011181800E+01
                       0.0000000000E+00  3.7527954500E+00  1.8763977250E+01
            xcart3     0.0000000000E+00  0.0000000000E+00  0.0000000000E+00
                       0.0000000000E+00  3.7527954500E+00  3.7527954500E+00
                       0.0000000000E+00  0.0000000000E+00  7.5055909000E+00
                       0.0000000000E+00  3.7527954500E+00  1.1258386350E+01
                       0.0000000000E+00  0.0000000000E+00  1.5011181800E+01
                       0.0000000000E+00  3.7527954500E+00  1.8763977250E+01
                       0.0000000000E+00  0.0000000000E+00  2.2516772700E+01
             xred1     0.0000000000E+00  0.0000000000E+00  0.0000000000E+00
                      -5.0000000000E-01  5.0000000000E-01  1.4285714286E-01
                       0.0000000000E+00  0.0000000000E+00  2.8571428571E-01
                      -5.0000000000E-01  5.0000000000E-01  4.2857142857E-01
                       0.0000000000E+00  0.0000000000E+00  5.7142857143E-01
             xred2     0.0000000000E+00  0.0000000000E+00  0.0000000000E+00
                      -5.0000000000E-01  5.0000000000E-01  1.2500000000E-01
                       0.0000000000E+00  0.0000000000E+00  2.5000000000E-01
                      -5.0000000000E-01  5.0000000000E-01  3.7500000000E-01
                       0.0000000000E+00  0.0000000000E+00  5.0000000000E-01
                      -5.0000000000E-01  5.0000000000E-01  6.2500000000E-01
             xred3     0.0000000000E+00  0.0000000000E+00  0.0000000000E+00
                      -5.0000000000E-01  5.0000000000E-01  1.1111111111E-01
                       0.0000000000E+00  0.0000000000E+00  2.2222222222E-01
                      -5.0000000000E-01  5.0000000000E-01  3.3333333333E-01
                       0.0000000000E+00  0.0000000000E+00  4.4444444444E-01
                      -5.0000000000E-01  5.0000000000E-01  5.5555555556E-01
                       0.0000000000E+00  0.0000000000E+00  6.6666666667E-01
            znucl       13.00000

================================================================================

 chkinp: Checking input parameters for consistency, jdtset=   1.

 chkinp: Checking input parameters for consistency, jdtset=   2.

 chkinp: Checking input parameters for consistency, jdtset=   3.

================================================================================
== DATASET  1 ==================================================================
-   nproc =    1

 Exchange-correlation functional for the present dataset will be:
  LDA: new Teter (4/93) with spin-polarized option - ixc=1
 Citation for XC functional:
  S. Goedecker, M. Teter, J. Huetter, PRB 54, 1703 (1996)

 Real(R)+Recip(G) space primitive vectors, cartesian coordinates (Bohr,Bohr^-1):
 R(1)=  3.7527955 -3.7527954  0.0000000  G(1)=  0.1332340 -0.1332340  0.0000000
 R(2)=  3.7527955  3.7527955  0.0000000  G(2)=  0.1332340  0.1332340  0.0000000
 R(3)=  0.0000000  0.0000000 26.2695682  G(3)=  0.0000000  0.0000000  0.0380669
 Unit cell volume ucvol=  7.3993354E+02 bohr^3
 Angles (23,13,12)=  9.00000000E+01  9.00000000E+01  9.00000000E+01 degrees

 getcut: wavevector=  0.0000  0.0000  0.0000  ngfft=  12  12  60
         ecut(hartree)=      6.000   => boxcut(ratio)=   2.05055

--- Pseudopotential description ------------------------------------------------
- pspini: atom type   1  psp file is 13al.981214.fhi
- pspatm: opening atomic psp file    13al.981214.fhi
- Aluminum, fhi98PP : Hamann-type, LDA CA PerdewWang, l=2 local
- 13.00000   3.00000    981214                znucl, zion, pspdat
    6    7    2    2       493   0.00000      pspcod,pspxc,lmax,lloc,mmax,r2well
  No XC core correction.
  1.024700          amesh (Hamman grid)
 pspatm: epsatm=    1.36305739
         --- l  ekb(1:nproj) -->
             0    1.768744
             1    0.900554
 pspatm: atomic psp has been read  and splines computed

   1.02229304E+02                                ecore*ucvol(ha*bohr**3)
--------------------------------------------------------------------------------

P newkpt: treating     11 bands with npw=     498 for ikpt=   1 by node    0
P newkpt: treating     11 bands with npw=     522 for ikpt=   2 by node    0
P newkpt: treating     11 bands with npw=     510 for ikpt=   3 by node    0
P newkpt: treating     11 bands with npw=     532 for ikpt=   4 by node    0
P newkpt: treating     11 bands with npw=     528 for ikpt=   5 by node    0
P newkpt: treating     11 bands with npw=     532 for ikpt=   6 by node    0

_setup2: Arith. and geom. avg. npw (full set) are     520.000     519.866

================================================================================

     iter   Etot(hartree)      deltaE(h)  residm     vres2
 ETOT  1  -10.295100462867    -1.030E+01 4.841E-03 7.837E+02
 ETOT  2  -10.444136279117    -1.490E-01 1.548E-04 5.098E+01
 ETOT  3  -10.453607336433    -9.471E-03 9.495E-05 8.319E-02
 ETOT  4  -10.453641087743    -3.375E-05 3.316E-05 5.620E-03
 ETOT  5  -10.453642168613    -1.081E-06 5.800E-06 3.121E-05
 ETOT  6  -10.453642176455    -7.842E-09 1.227E-05 7.002E-08
 ETOT  7  -10.453642176510    -5.486E-11 1.791E-06 8.141E-09

 At SCF step    7, etot is converged : 
  for the second time, diff in etot=  5.486E-11 < toldfe=  1.000E-06

 Cartesian components of stress tensor (hartree/bohr^3)
  sigma(1 1)=  1.19359854E-04  sigma(3 2)=  0.00000000E+00
  sigma(2 2)=  1.19359854E-04  sigma(3 1)=  0.00000000E+00
  sigma(3 3)= -4.44274805E-05  sigma(2 1)=  0.00000000E+00

================================================================================

 ----iterations are completed or convergence reached----

 Mean square residual over all n,k,spin=   3.0753E-08; max=  1.7912E-06
   0.0000  0.1250  0.0000    1  1.79124E-06 kpt; spin; max resid(k); each band:
  1.38E-13 2.24E-13 1.28E-13 1.11E-13 1.96E-13 4.80E-13 2.33E-13 1.08E-13
  1.11E-13 2.05E-07 1.79E-06
   0.0000  0.3750  0.0000    1  4.34203E-10 kpt; spin; max resid(k); each band:
  8.82E-14 2.00E-13 1.00E-13 1.22E-13 1.08E-13 1.24E-13 1.45E-13 8.21E-14
  1.12E-13 7.41E-14 4.34E-10
   0.1250  0.2500  0.0000    1  2.41486E-08 kpt; spin; max resid(k); each band:
  1.54E-13 1.91E-13 1.42E-13 1.13E-13 5.45E-14 1.18E-13 8.80E-14 1.15E-13
  1.65E-13 3.00E-13 2.41E-08
   0.1250  0.5000  0.0000    1  6.81156E-12 kpt; spin; max resid(k); each band:
  6.23E-14 1.41E-13 1.49E-13 8.51E-14 1.34E-13 2.36E-14 1.40E-13 7.94E-14
  7.67E-14 2.20E-14 6.81E-12
   0.2500  0.3750  0.0000    1  3.38393E-12 kpt; spin; max resid(k); each band:
  7.57E-14 1.95E-13 1.40E-13 8.93E-14 1.24E-13 1.13E-13 1.28E-13 1.01E-13
  1.84E-13 5.70E-13 3.38E-12
   0.3750  0.5000  0.0000    1  9.30250E-09 kpt; spin; max resid(k); each band:
  1.09E-14 1.00E-13 1.32E-13 9.92E-14 1.68E-13 2.75E-14 1.28E-13 1.28E-13
  3.55E-13 5.51E-13 9.30E-09
 reduced coordinates (array xred) for    5 atoms
       0.000000000000      0.000000000000      0.000000000000
      -0.500000000000      0.500000000000      0.142857142857
       0.000000000000      0.000000000000      0.285714285714
      -0.500000000000      0.500000000000      0.428571428571
       0.000000000000      0.000000000000      0.571428571429
 rms dE/dt=  2.4029E-02; max dE/dt=  5.9485E-02; dE/dt below (all hartree)
    1       0.000000000000      0.000000000000      0.059484927567
    2       0.000000000000      0.000000000000      0.028140572942
    3       0.000000000000      0.000000000000      0.000000000000
    4       0.000000000000      0.000000000000     -0.028140572942
    5       0.000000000000      0.000000000000     -0.059484927567

 cartesian coordinates (angstrom) at end:
    1      0.00000000000000     0.00000000000000     0.00000000000000
    2      0.00000000000000     1.98589382064025     1.98589382064025
    3      0.00000000000000     0.00000000000000     3.97178764128050
    4      0.00000000000000     1.98589382064025     5.95768146192076
    5      0.00000000000000     0.00000000000000     7.94357528256101

 cartesian forces (hartree/bohr) at end:
    1     -0.00000000000000    -0.00000000000000    -0.00226440447089
    2     -0.00000000000000    -0.00000000000000    -0.00107122327939
    3     -0.00000000000000    -0.00000000000000    -0.00000000000000
    4     -0.00000000000000    -0.00000000000000     0.00107122327939
    5     -0.00000000000000    -0.00000000000000     0.00226440447089
 frms,max,avg= 9.1469827E-04 2.2644045E-03   0.000E+00  0.000E+00  0.000E+00 h/b

 cartesian forces (eV/Angstrom) at end:
    1     -0.00000000000000    -0.00000000000000    -0.11644034979478
    2     -0.00000000000000    -0.00000000000000    -0.05508451116556
    3     -0.00000000000000    -0.00000000000000    -0.00000000000000
    4     -0.00000000000000    -0.00000000000000     0.05508451116556
    5     -0.00000000000000    -0.00000000000000     0.11644034979478
 frms,max,avg= 4.7035672E-02 1.1644035E-01   0.000E+00  0.000E+00  0.000E+00 e/A
 length scales=  7.505590900000  7.505590900000  7.505590900000 bohr
              =  3.971787641281  3.971787641281  3.971787641281 angstroms
 prteigrs : about to open file tbase4_xo_DS1_EIG
 Fermi (or HOMO) energy (hartree) =   0.16649   Average Vxc (hartree)=  -0.29189
 Eigenvalues (hartree) for nkpt=   6  k points:
 kpt#   1, nband= 11, wtk=  0.12500, kpt=  0.0000  0.1250  0.0000 (reduced coord)
  -0.23521  -0.19957  -0.14174  -0.06712   0.02487   0.09809   0.19998   0.25360
   0.28381   0.33167   0.33870
      occupation numbers for kpt#   1
   2.00000   2.00000   2.00000   2.00000   2.00002   2.07761   0.03373   0.00312
   0.00020   0.00000   0.00000
 kpt#   2, nband= 11, wtk=  0.12500, kpt=  0.0000  0.3750  0.0000 (reduced coord)
  -0.15022  -0.11510  -0.05804   0.01543   0.01545   0.05016   0.10147   0.11181
   0.16912   0.18659   0.26528
      occupation numbers for kpt#   2
   2.00000   2.00000   2.00000   2.00000   2.00000   2.00085   2.09228   2.13297
   0.73195   0.19594   0.00135
 kpt#   3, nband= 11, wtk=  0.25000, kpt=  0.1250  0.2500  0.0000 (reduced coord)
  -0.19252  -0.15714  -0.09969  -0.02554   0.06589   0.13487   0.13752   0.16833
   0.22216   0.24261   0.29397
      occupation numbers for kpt#   3
   2.00000   2.00000   2.00000   2.00000   2.00548   1.99638   1.94067   0.76396
   0.00170   0.00494   0.00006
 kpt#   4, nband= 11, wtk=  0.12500, kpt=  0.1250  0.5000  0.0000 (reduced coord)
  -0.06746  -0.06600  -0.03523  -0.02873   0.02255   0.02630   0.09221   0.10210
   0.17638   0.20269   0.24383
      occupation numbers for kpt#   4
   2.00000   2.00000   2.00000   2.00000   2.00001   2.00003   2.05449   2.09505
   0.46393   0.02020   0.00479
 kpt#   5, nband= 11, wtk=  0.25000, kpt=  0.2500  0.3750  0.0000 (reduced coord)
  -0.10834  -0.07345  -0.01678   0.05427   0.05611   0.08865   0.14066   0.15015
   0.20813   0.22358   0.22607
      occupation numbers for kpt#   5
   2.00000   2.00000   2.00000   2.00143   2.00179   2.04266   1.86146   1.54169
   0.00501   0.00225   0.00318
 kpt#   6, nband= 11, wtk=  0.12500, kpt=  0.3750  0.5000  0.0000 (reduced coord)
   0.01315   0.01445   0.04483   0.05075   0.10051   0.10587   0.17064   0.17797
   0.18359   0.18639   0.21420
      occupation numbers for kpt#   6
   2.00000   2.00000   2.00042   2.00091   2.08808   2.11139   0.67158   0.41340
   0.26042   0.19985   0.00011
 Total charge density [el/Bohr^3]
,     Maximum=    3.4565E-02  at reduced coord.    0.0000    0.6667    0.5500
,Next maximum=    3.4565E-02  at reduced coord.    0.0000    0.3333    0.5500
,     Minimum=    2.0805E-04  at reduced coord.    0.5000    0.5000    0.7833
,Next minimum=    2.1314E-04  at reduced coord.    0.5000    0.4167    0.7833
,  Integrated=    1.5000E+01

--------------------------------------------------------------------------------
 Components of total free energy (in Hartree) :

    Kinetic energy  =  4.18544908973332E+00
    Hartree energy  =  8.09479720972692E+00
    XC energy       = -3.95230722257507E+00
    Ewald energy    = -3.80934184025056E+00
    PspCore energy  =  1.38160115627589E-01
    Loc. psp. energy= -1.73847174035924E+01
    NL   psp  energy=  2.27683072174648E+00
    >>>>> Internal E= -1.04511293295837E+01

    -kT*entropy     = -2.51284692578468E-03
    >>>>>>>>> Etotal= -1.04536421765095E+01

 Other information on the energy :
    Total energy(eV)= -2.84458070000086E+02 ; Band energy (Ha)=   1.1818667630E-01
--------------------------------------------------------------------------------

 Cartesian components of stress tensor (hartree/bohr^3)
  sigma(1 1)=  1.19359854E-04  sigma(3 2)=  0.00000000E+00
  sigma(2 2)=  1.19359854E-04  sigma(3 1)=  0.00000000E+00
  sigma(3 3)= -4.44274805E-05  sigma(2 1)=  0.00000000E+00

-Cartesian components of stress tensor (GPa)         [Pressure= -1.9054E+00 GPa]
- sigma(1 1)=  3.51168754E+00  sigma(3 2)=  0.00000000E+00
- sigma(2 2)=  3.51168754E+00  sigma(3 1)=  0.00000000E+00
- sigma(3 3)= -1.30710138E+00  sigma(2 1)=  0.00000000E+00

================================================================================
== DATASET  2 ==================================================================
-   nproc =    1

 Exchange-correlation functional for the present dataset will be:
  LDA: new Teter (4/93) with spin-polarized option - ixc=1
 Citation for XC functional:
  S. Goedecker, M. Teter, J. Huetter, PRB 54, 1703 (1996)

 Real(R)+Recip(G) space primitive vectors, cartesian coordinates (Bohr,Bohr^-1):
 R(1)=  3.7527955 -3.7527954  0.0000000  G(1)=  0.1332340 -0.1332340  0.0000000
 R(2)=  3.7527955  3.7527955  0.0000000  G(2)=  0.1332340  0.1332340  0.0000000
 R(3)=  0.0000000  0.0000000 30.0223636  G(3)=  0.0000000  0.0000000  0.0333085
 Unit cell volume ucvol=  8.4563834E+02 bohr^3
 Angles (23,13,12)=  9.00000000E+01  9.00000000E+01  9.00000000E+01 degrees

 getcut: wavevector=  0.0000  0.0000  0.0000  ngfft=  12  12  72
         ecut(hartree)=      6.000   => boxcut(ratio)=   2.05055

--- Pseudopotential description ------------------------------------------------
- pspini: atom type   1  psp file is 13al.981214.fhi
- pspatm: opening atomic psp file    13al.981214.fhi
- Aluminum, fhi98PP : Hamann-type, LDA CA PerdewWang, l=2 local
- 13.00000   3.00000    981214                znucl, zion, pspdat
    6    7    2    2       493   0.00000      pspcod,pspxc,lmax,lloc,mmax,r2well
  No XC core correction.
  1.024700          amesh (Hamman grid)
 pspatm: epsatm=    1.36305739
         --- l  ekb(1:nproj) -->
             0    1.768744
             1    0.900554
 pspatm: atomic psp has been read  and splines computed

   1.47210198E+02                                ecore*ucvol(ha*bohr**3)
--------------------------------------------------------------------------------

P newkpt: treating     12 bands with npw=     578 for ikpt=   1 by node    0
P newkpt: treating     12 bands with npw=     592 for ikpt=   2 by node    0
P newkpt: treating     12 bands with npw=     580 for ikpt=   3 by node    0
P newkpt: treating     12 bands with npw=     608 for ikpt=   4 by node    0
P newkpt: treating     12 bands with npw=     600 for ikpt=   5 by node    0
P newkpt: treating     12 bands with npw=     600 for ikpt=   6 by node    0

_setup2: Arith. and geom. avg. npw (full set) are     592.250     592.152

================================================================================

     iter   Etot(hartree)      deltaE(h)  residm     vres2
 ETOT  1  -12.368633306266    -1.237E+01 9.404E-03 1.262E+03
 ETOT  2  -12.532551771753    -1.639E-01 1.327E-04 1.625E+02
 ETOT  3  -12.555125010157    -2.257E-02 1.028E-04 9.559E-01
 ETOT  4  -12.555281413728    -1.564E-04 1.182E-05 2.259E-02
 ETOT  5  -12.555285189316    -3.776E-06 4.239E-06 1.178E-04
 ETOT  6  -12.555285281792    -9.248E-08 5.166E-07 8.626E-05
 ETOT  7  -12.555285304426    -2.263E-08 2.423E-07 2.220E-07

 At SCF step    7, etot is converged : 
  for the second time, diff in etot=  2.263E-08 < toldfe=  1.000E-06

 Cartesian components of stress tensor (hartree/bohr^3)
  sigma(1 1)=  1.08507363E-04  sigma(3 2)=  0.00000000E+00
  sigma(2 2)=  1.08507363E-04  sigma(3 1)=  0.00000000E+00
  sigma(3 3)= -1.66407627E-05  sigma(2 1)=  0.00000000E+00

================================================================================

 ----iterations are completed or convergence reached----

 Mean square residual over all n,k,spin=   3.6877E-09; max=  2.4228E-07
   0.0000  0.1250  0.0000    1  2.69949E-11 kpt; spin; max resid(k); each band:
  6.81E-12 5.68E-12 1.19E-11 1.43E-11 1.52E-11 1.38E-11 2.70E-11 5.62E-12
  7.54E-12 1.90E-11 6.31E-12 8.13E-12
   0.0000  0.3750  0.0000    1  1.37071E-11 kpt; spin; max resid(k); each band:
  6.78E-12 5.20E-12 1.19E-11 1.37E-11 7.44E-12 1.13E-11 8.47E-12 1.17E-11
  1.03E-11 5.35E-12 9.88E-12 5.55E-12
   0.1250  0.2500  0.0000    1  1.47622E-11 kpt; spin; max resid(k); each band:
  6.76E-12 5.66E-12 1.19E-11 1.41E-11 1.48E-11 1.28E-11 9.81E-12 7.62E-12
  5.31E-12 7.56E-12 5.59E-12 5.58E-12
   0.1250  0.5000  0.0000    1  1.35999E-11 kpt; spin; max resid(k); each band:
  7.17E-12 7.17E-12 4.99E-12 4.99E-12 1.17E-11 1.17E-11 1.36E-11 1.36E-11
  6.17E-12 6.17E-12 9.75E-12 9.83E-12
   0.2500  0.3750  0.0000    1  2.42276E-07 kpt; spin; max resid(k); each band:
  6.74E-12 5.06E-12 1.18E-11 1.34E-11 7.44E-12 1.00E-11 9.48E-12 7.16E-12
  9.72E-12 5.37E-12 5.01E-10 2.42E-07
   0.3750  0.5000  0.0000    1  1.77566E-08 kpt; spin; max resid(k); each band:
  6.95E-12 6.95E-12 4.81E-12 4.81E-12 1.04E-11 1.05E-11 5.32E-12 5.35E-12
  1.59E-10 5.16E-10 3.70E-09 1.78E-08
 reduced coordinates (array xred) for    6 atoms
       0.000000000000      0.000000000000      0.000000000000
      -0.500000000000      0.500000000000      0.125000000000
       0.000000000000      0.000000000000      0.250000000000
      -0.500000000000      0.500000000000      0.375000000000
       0.000000000000      0.000000000000      0.500000000000
      -0.500000000000      0.500000000000      0.625000000000
 rms dE/dt=  3.6695E-02; max dE/dt=  9.1698E-02; dE/dt below (all hartree)
    1       0.000000000000      0.000000000000      0.091697683870
    2       0.000000000000      0.000000000000     -0.032252780753
    3       0.000000000000      0.000000000000      0.051671737589
    4       0.000000000000      0.000000000000     -0.051671737589
    5       0.000000000000      0.000000000000      0.032252780753
    6       0.000000000000      0.000000000000     -0.091697683870

 cartesian coordinates (angstrom) at end:
    1      0.00000000000000     0.00000000000000     0.00000000000000
    2      0.00000000000000     1.98589382064025     1.98589382064025
    3      0.00000000000000     0.00000000000000     3.97178764128050
    4      0.00000000000000     1.98589382064025     5.95768146192076
    5      0.00000000000000     0.00000000000000     7.94357528256101
    6      0.00000000000000     1.98589382064025     9.92946910320126

 cartesian forces (hartree/bohr) at end:
    1     -0.00000000000000    -0.00000000000000    -0.00305431261480
    2     -0.00000000000000    -0.00000000000000     0.00107429185733
    3     -0.00000000000000    -0.00000000000000    -0.00172110824708
    4     -0.00000000000000    -0.00000000000000     0.00172110824708
    5     -0.00000000000000    -0.00000000000000    -0.00107429185733
    6     -0.00000000000000    -0.00000000000000     0.00305431261480
 frms,max,avg= 1.2222539E-03 3.0543126E-03   0.000E+00  0.000E+00  0.000E+00 h/b

 cartesian forces (eV/Angstrom) at end:
    1     -0.00000000000000    -0.00000000000000    -0.15705905628694
    2     -0.00000000000000    -0.00000000000000     0.05524230377473
    3     -0.00000000000000    -0.00000000000000    -0.08850293704226
    4     -0.00000000000000    -0.00000000000000     0.08850293704226
    5     -0.00000000000000    -0.00000000000000    -0.05524230377473
    6     -0.00000000000000    -0.00000000000000     0.15705905628694
 frms,max,avg= 6.2850819E-02 1.5705906E-01   0.000E+00  0.000E+00  0.000E+00 e/A
 length scales=  7.505590900000  7.505590900000  7.505590900000 bohr
              =  3.971787641281  3.971787641281  3.971787641281 angstroms
 prteigrs : about to open file tbase4_xo_DS2_EIG
 Fermi (or HOMO) energy (hartree) =   0.18162   Average Vxc (hartree)=  -0.29978
 Eigenvalues (hartree) for nkpt=   6  k points:
 kpt#   1, nband= 12, wtk=  0.12500, kpt=  0.0000  0.1250  0.0000 (reduced coord)
  -0.22346  -0.19802  -0.15652  -0.10023  -0.03282   0.05179   0.10327   0.21929
   0.26608   0.26961   0.28982   0.32581
      occupation numbers for kpt#   1
   2.00000   2.00000   2.00000   2.00000   2.00000   2.00013   2.04107   0.01471
   0.00360   0.00296   0.00056   0.00000
 kpt#   2, nband= 12, wtk=  0.12500, kpt=  0.0000  0.3750  0.0000 (reduced coord)
  -0.13841  -0.11334  -0.07245  -0.01702   0.02738   0.04698   0.05476   0.09178
   0.13409   0.14547   0.18355   0.21219
      occupation numbers for kpt#   2
   2.00000   2.00000   2.00000   2.00000   2.00000   2.00006   2.00020   2.01598
   2.14112   2.06859   0.76088   0.05430
 kpt#   3, nband= 12, wtk=  0.25000, kpt=  0.1250  0.2500  0.0000 (reduced coord)
  -0.18073  -0.15547  -0.11430  -0.05840   0.00860   0.09243   0.14300   0.14710
   0.17065   0.20964   0.25967   0.26311
      occupation numbers for kpt#   3
   2.00000   2.00000   2.00000   2.00000   2.00000   2.01695   2.09649   2.04598
   1.32034   0.07819   0.00469   0.00414
 kpt#   4, nband= 12, wtk=  0.12500, kpt=  0.1250  0.5000  0.0000 (reduced coord)
  -0.05490  -0.05490  -0.03028  -0.03028   0.01048   0.01048   0.06515   0.06515
   0.13082   0.13082   0.21359   0.21359
      occupation numbers for kpt#   4
   2.00000   2.00000   2.00000   2.00000   2.00000   2.00000   2.00083   2.00083
   2.14082   2.14082   0.04358   0.04358
 kpt#   5, nband= 12, wtk=  0.25000, kpt=  0.2500  0.3750  0.0000 (reduced coord)
  -0.09649  -0.07159  -0.03100   0.02403   0.06622   0.08646   0.09446   0.12998
   0.17325   0.18317   0.22286   0.23831
      occupation numbers for kpt#   5
   2.00000   2.00000   2.00000   2.00000   2.00095   2.00961   2.02030   2.13972
   1.20732   0.77664   0.00572   0.00209
 kpt#   6, nband= 12, wtk=  0.12500, kpt=  0.3750  0.5000  0.0000 (reduced coord)
   0.02572   0.02572   0.04981   0.04981   0.08965   0.08965   0.14347   0.14347
   0.19687   0.19687   0.20609   0.20609
      occupation numbers for kpt#   6
   2.00000   2.00000   2.00010   2.00010   2.01310   2.01310   2.09174   2.09174
   0.30651   0.30651   0.12209   0.12209
 Total charge density [el/Bohr^3]
,     Maximum=    3.4691E-02  at reduced coord.    0.5000    0.8333    0.6111
,Next maximum=    3.4691E-02  at reduced coord.    0.8333    0.5000    0.6111
,     Minimum=    3.7930E-04  at reduced coord.    0.0000    0.0000    0.8056
,Next minimum=    3.7930E-04  at reduced coord.    0.5000    0.5000    0.8194
,  Integrated=    1.8000E+01

--------------------------------------------------------------------------------
 Components of total free energy (in Hartree) :

    Kinetic energy  =  5.04813536882278E+00
    Hartree energy  =  1.03661115637987E+01
    XC energy       = -4.76449225316329E+00
    Ewald energy    = -4.18136889917539E+00
    PspCore energy  =  1.74081745690762E-01
    Loc. psp. energy= -2.19286809251238E+01
    NL   psp  energy=  2.72934164949418E+00
    >>>>> Internal E= -1.25568717496561E+01

    -kT*entropy     =  1.58644522957312E-03
    >>>>>>>>> Etotal= -1.25552853044265E+01

 Other information on the energy :
    Total energy(eV)= -3.41646687890566E+02 ; Band energy (Ha)=   3.7378192198E-01
--------------------------------------------------------------------------------

 Cartesian components of stress tensor (hartree/bohr^3)
  sigma(1 1)=  1.08507363E-04  sigma(3 2)=  0.00000000E+00
  sigma(2 2)=  1.08507363E-04  sigma(3 1)=  0.00000000E+00
  sigma(3 3)= -1.66407627E-05  sigma(2 1)=  0.00000000E+00

-Cartesian components of stress tensor (GPa)         [Pressure= -1.9651E+00 GPa]
- sigma(1 1)=  3.19239629E+00  sigma(3 2)=  0.00000000E+00
- sigma(2 2)=  3.19239629E+00  sigma(3 1)=  0.00000000E+00
- sigma(3 3)= -4.89588060E-01  sigma(2 1)=  0.00000000E+00

================================================================================
== DATASET  3 ==================================================================
-   nproc =    1

 Exchange-correlation functional for the present dataset will be:
  LDA: new Teter (4/93) with spin-polarized option - ixc=1
 Citation for XC functional:
  S. Goedecker, M. Teter, J. Huetter, PRB 54, 1703 (1996)

 Real(R)+Recip(G) space primitive vectors, cartesian coordinates (Bohr,Bohr^-1):
 R(1)=  3.7527955 -3.7527954  0.0000000  G(1)=  0.1332340 -0.1332340  0.0000000
 R(2)=  3.7527955  3.7527955  0.0000000  G(2)=  0.1332340  0.1332340  0.0000000
 R(3)=  0.0000000  0.0000000 33.7751591  G(3)=  0.0000000  0.0000000  0.0296076
 Unit cell volume ucvol=  9.5134313E+02 bohr^3
 Angles (23,13,12)=  9.00000000E+01  9.00000000E+01  9.00000000E+01 degrees

 getcut: wavevector=  0.0000  0.0000  0.0000  ngfft=  12  12  80
         ecut(hartree)=      6.000   => boxcut(ratio)=   2.05055

--- Pseudopotential description ------------------------------------------------
- pspini: atom type   1  psp file is 13al.981214.fhi
- pspatm: opening atomic psp file    13al.981214.fhi
- Aluminum, fhi98PP : Hamann-type, LDA CA PerdewWang, l=2 local
- 13.00000   3.00000    981214                znucl, zion, pspdat
    6    7    2    2       493   0.00000      pspcod,pspxc,lmax,lloc,mmax,r2well
  No XC core correction.
  1.024700          amesh (Hamman grid)
 pspatm: epsatm=    1.36305739
         --- l  ekb(1:nproj) -->
             0    1.768744
             1    0.900554
 pspatm: atomic psp has been read  and splines computed

   2.00369436E+02                                ecore*ucvol(ha*bohr**3)
--------------------------------------------------------------------------------

P newkpt: treating     15 bands with npw=     644 for ikpt=   1 by node    0
P newkpt: treating     15 bands with npw=     672 for ikpt=   2 by node    0
P newkpt: treating     15 bands with npw=     656 for ikpt=   3 by node    0
P newkpt: treating     15 bands with npw=     668 for ikpt=   4 by node    0
P newkpt: treating     15 bands with npw=     678 for ikpt=   5 by node    0
P newkpt: treating     15 bands with npw=     684 for ikpt=   6 by node    0

_setup2: Arith. and geom. avg. npw (full set) are     667.000     666.875

================================================================================

     iter   Etot(hartree)      deltaE(h)  residm     vres2
 ETOT  1  -14.412293801775    -1.441E+01 5.923E-03 2.022E+03
 ETOT  2  -14.638798468386    -2.265E-01 1.737E-04 1.165E+02
 ETOT  3  -14.652298822311    -1.350E-02 1.470E-04 7.124E-01
 ETOT  4  -14.652410137162    -1.113E-04 4.975E-05 1.459E-02
 ETOT  5  -14.652412391254    -2.254E-06 4.473E-05 4.666E-04
 ETOT  6  -14.652412544353    -1.531E-07 1.450E-05 1.554E-06
 ETOT  7  -14.652412598260    -5.391E-08 1.127E-05 4.703E-07

 At SCF step    7, etot is converged : 
  for the second time, diff in etot=  5.391E-08 < toldfe=  1.000E-06

 Cartesian components of stress tensor (hartree/bohr^3)
  sigma(1 1)=  1.06472422E-04  sigma(3 2)=  0.00000000E+00
  sigma(2 2)=  1.06472422E-04  sigma(3 1)=  0.00000000E+00
  sigma(3 3)= -3.87912784E-05  sigma(2 1)=  0.00000000E+00

================================================================================

 ----iterations are completed or convergence reached----

 Mean square residual over all n,k,spin=   1.3089E-07; max=  1.1268E-05
   0.0000  0.1250  0.0000    1  5.70313E-12 kpt; spin; max resid(k); each band:
  1.65E-12 7.13E-13 1.54E-12 1.52E-12 1.43E-12 8.68E-13 3.72E-12 1.90E-12
  2.97E-12 1.00E-12 8.99E-13 1.73E-12 2.81E-12 5.70E-12 1.97E-12
   0.0000  0.3750  0.0000    1  1.84418E-11 kpt; spin; max resid(k); each band:
  1.61E-12 4.78E-13 1.53E-12 1.51E-12 1.42E-12 1.58E-12 5.25E-13 6.76E-13
  1.26E-12 4.21E-13 7.46E-13 8.53E-13 1.22E-12 6.79E-13 1.84E-11
   0.1250  0.2500  0.0000    1  4.53789E-07 kpt; spin; max resid(k); each band:
  1.63E-12 4.80E-13 1.55E-12 1.51E-12 1.45E-12 5.97E-13 8.92E-13 1.61E-12
  1.18E-12 1.07E-13 1.15E-12 1.42E-13 9.53E-13 8.72E-12 4.54E-07
   0.1250  0.5000  0.0000    1  2.07835E-10 kpt; spin; max resid(k); each band:
  1.76E-12 1.46E-12 2.03E-13 7.29E-13 1.34E-12 1.50E-12 7.11E-13 1.24E-12
  1.18E-12 7.03E-13 3.09E-13 9.20E-13 7.38E-13 4.75E-13 2.08E-10
   0.2500  0.3750  0.0000    1  5.46435E-08 kpt; spin; max resid(k); each band:
  1.59E-12 4.78E-13 1.50E-12 1.54E-12 1.15E-12 1.51E-12 2.31E-13 6.46E-13
  1.18E-12 1.34E-13 5.09E-13 9.03E-13 3.24E-12 2.12E-11 5.46E-08
   0.3750  0.5000  0.0000    1  1.12678E-05 kpt; spin; max resid(k); each band:
  1.49E-12 1.39E-12 1.39E-13 2.42E-13 1.14E-12 1.19E-12 4.70E-13 2.71E-13
  1.03E-12 7.61E-13 3.00E-12 9.21E-12 6.11E-10 2.67E-09 1.13E-05
 reduced coordinates (array xred) for    7 atoms
       0.000000000000      0.000000000000      0.000000000000
      -0.500000000000      0.500000000000      0.111111111111
       0.000000000000      0.000000000000      0.222222222222
      -0.500000000000      0.500000000000      0.333333333333
       0.000000000000      0.000000000000      0.444444444444
      -0.500000000000      0.500000000000      0.555555555556
       0.000000000000      0.000000000000      0.666666666667
 rms dE/dt=  3.4593E-02; max dE/dt=  1.0699E-01; dE/dt below (all hartree)
    1       0.000000000000      0.000000000000      0.106992458666
    2       0.000000000000      0.000000000000     -0.024836931217
    3       0.000000000000      0.000000000000     -0.022372005547
    4       0.000000000000      0.000000000000      0.000000000000
    5       0.000000000000      0.000000000000      0.022372005547
    6       0.000000000000      0.000000000000      0.024836931217
    7       0.000000000000      0.000000000000     -0.106992458666

 cartesian coordinates (angstrom) at end:
    1      0.00000000000000     0.00000000000000     0.00000000000000
    2      0.00000000000000     1.98589382064025     1.98589382064025
    3      0.00000000000000     0.00000000000000     3.97178764128051
    4      0.00000000000000     1.98589382064025     5.95768146192076
    5      0.00000000000000     0.00000000000000     7.94357528256101
    6      0.00000000000000     1.98589382064025     9.92946910320127
    7      0.00000000000000     0.00000000000000    11.91536292384152

 cartesian forces (hartree/bohr) at end:
    1     -0.00000000000000    -0.00000000000000    -0.00316778548719
    2     -0.00000000000000    -0.00000000000000     0.00073536089586
    3     -0.00000000000000    -0.00000000000000     0.00066238046472
    4     -0.00000000000000    -0.00000000000000     0.00000000000000
    5     -0.00000000000000    -0.00000000000000    -0.00066238046472
    6     -0.00000000000000    -0.00000000000000    -0.00073536089586
    7     -0.00000000000000    -0.00000000000000     0.00316778548719
 frms,max,avg= 1.0242009E-03 3.1677855E-03   0.000E+00  0.000E+00  0.000E+00 h/b

 cartesian forces (eV/Angstrom) at end:
    1     -0.00000000000000    -0.00000000000000    -0.16289406550188
    2     -0.00000000000000    -0.00000000000000     0.03781377445620
    3     -0.00000000000000    -0.00000000000000     0.03406097011397
    4     -0.00000000000000    -0.00000000000000     0.00000000000000
    5     -0.00000000000000    -0.00000000000000    -0.03406097011397
    6     -0.00000000000000    -0.00000000000000    -0.03781377445620
    7     -0.00000000000000    -0.00000000000000     0.16289406550188
 frms,max,avg= 5.2666523E-02 1.6289407E-01   0.000E+00  0.000E+00  0.000E+00 e/A
 length scales=  7.505590900000  7.505590900000  7.505590900000 bohr
              =  3.971787641281  3.971787641281  3.971787641281 angstroms
 prteigrs : about to open file tbase4_xo_DS3_EIG
 Fermi (or HOMO) energy (hartree) =   0.19373   Average Vxc (hartree)=  -0.30489
 Eigenvalues (hartree) for nkpt=   6  k points:
 kpt#   1, nband= 15, wtk=  0.12500, kpt=  0.0000  0.1250  0.0000 (reduced coord)
  -0.21252  -0.19356  -0.16240  -0.11901  -0.06680  -0.00371   0.06784   0.11879
   0.20714   0.27658   0.28847   0.30805   0.31944   0.32974   0.36207
      occupation numbers for kpt#   1
   2.00000   2.00000   2.00000   2.00000   2.00000   2.00000   2.00023   2.05215
   0.35629   0.00389   0.00186   0.00029   0.00007   0.00002   0.00000
 kpt#   2, nband= 15, wtk=  0.12500, kpt=  0.0000  0.3750  0.0000 (reduced coord)
  -0.12745  -0.10878  -0.07809  -0.03532   0.01599   0.03843   0.05599   0.07933
   0.08683   0.12846   0.14925   0.18010   0.19704   0.24162   0.28781
      occupation numbers for kpt#   2
   2.00000   2.00000   2.00000   2.00000   2.00000   2.00000   2.00004   2.00108
   2.00270   2.09118   2.13434   1.43255   0.70494   0.00009   0.00196
 kpt#   3, nband= 15, wtk=  0.25000, kpt=  0.1250  0.2500  0.0000 (reduced coord)
  -0.16979  -0.15097  -0.12006  -0.07696  -0.02511   0.03749   0.10839   0.15804
   0.15829   0.17562   0.20482   0.24602   0.24864   0.29605   0.33112
      occupation numbers for kpt#   3
   2.00000   2.00000   2.00000   2.00000   2.00000   2.00000   2.02373   2.06247
   2.05910   1.60989   0.42545   0.00053   0.00141   0.00099   0.00001
 kpt#   4, nband= 15, wtk=  0.12500, kpt=  0.1250  0.5000  0.0000 (reduced coord)
  -0.04419  -0.04355  -0.02664  -0.02436   0.00165   0.00811   0.04440   0.05020
   0.09553   0.10073   0.15450   0.16476   0.21994   0.24399   0.26680
      occupation numbers for kpt#   4
   2.00000   2.00000   2.00000   2.00000   2.00000   2.00000   2.00001   2.00001
   2.00706   2.01189   2.10217   1.94069   0.09885   0.00010   0.00520
 kpt#   5, nband= 15, wtk=  0.25000, kpt=  0.2500  0.3750  0.0000 (reduced coord)
  -0.08553  -0.06698  -0.03652   0.00592   0.05684   0.07734   0.09468   0.11972
   0.12521   0.16634   0.18856   0.21717   0.23646   0.24919   0.26710
      occupation numbers for kpt#   5
   2.00000   2.00000   2.00000   2.00000   2.00004   2.00084   2.00646   2.05545
   2.07711   1.90275   1.06579   0.13748   0.00342   0.00162   0.00519
 kpt#   6, nband= 15, wtk=  0.12500, kpt=  0.3750  0.5000  0.0000 (reduced coord)
   0.03648   0.03704   0.05372   0.05573   0.08143   0.08742   0.12258   0.12955
   0.17410   0.17747   0.20742   0.20879   0.22032   0.22563   0.23729
      occupation numbers for kpt#   6
   2.00000   2.00000   2.00003   2.00004   2.00141   2.00290   2.06630   2.09597
   1.66502   1.53881   0.34824   0.31135   0.09424   0.04408   0.00247
 Total charge density [el/Bohr^3]
,     Maximum=    3.4744E-02  at reduced coord.    0.0000    0.6667    0.6500
,Next maximum=    3.4744E-02  at reduced coord.    0.0000    0.3333    0.6500
,     Minimum=    2.5021E-04  at reduced coord.    0.5000    0.5000    0.8375
,Next minimum=    2.5526E-04  at reduced coord.    0.5000    0.4167    0.8375
,  Integrated=    2.1000E+01

--------------------------------------------------------------------------------
 Components of total free energy (in Hartree) :

    Kinetic energy  =  5.93104399548235E+00
    Hartree energy  =  1.27140978274769E+01
    XC energy       = -5.57990526321449E+00
    Ewald energy    = -4.52345518556107E+00
    PspCore energy  =  2.10617420712280E-01
    Loc. psp. energy= -2.65842816537901E+01
    NL   psp  energy=  3.18096579388888E+00
    >>>>> Internal E= -1.46509170650053E+01

    -kT*entropy     = -1.49553325501372E-03
    >>>>>>>>> Etotal= -1.46524125982603E+01

 Other information on the energy :
    Total energy(eV)= -3.98712423686361E+02 ; Band energy (Ha)=   6.8627969296E-01
--------------------------------------------------------------------------------

 Cartesian components of stress tensor (hartree/bohr^3)
  sigma(1 1)=  1.06472422E-04  sigma(3 2)=  0.00000000E+00
  sigma(2 2)=  1.06472422E-04  sigma(3 1)=  0.00000000E+00
  sigma(3 3)= -3.87912784E-05  sigma(2 1)=  0.00000000E+00

-Cartesian components of stress tensor (GPa)         [Pressure= -1.7079E+00 GPa]
- sigma(1 1)=  3.13252627E+00  sigma(3 2)=  0.00000000E+00
- sigma(2 2)=  3.13252627E+00  sigma(3 1)=  0.00000000E+00
- sigma(3 3)= -1.14127862E+00  sigma(2 1)=  0.00000000E+00

== END DATASET(S) ==============================================================
================================================================================
  
 -outvars: echo values of variables after computation  --------
            acell      7.5055909000E+00  7.5055909000E+00  7.5055909000E+00 Bohr
              amu      2.69815390E+01
      chksymbreak           0
             ecut      6.00000000E+00 Hartree
           etotal1    -1.0453642177E+01
           etotal2    -1.2555285304E+01
           etotal3    -1.4652412598E+01
            fcart1    -0.0000000000E+00 -0.0000000000E+00 -2.2644044709E-03
                      -0.0000000000E+00 -0.0000000000E+00 -1.0712232794E-03
                      -0.0000000000E+00 -0.0000000000E+00 -0.0000000000E+00
                      -0.0000000000E+00 -0.0000000000E+00  1.0712232794E-03
                      -0.0000000000E+00 -0.0000000000E+00  2.2644044709E-03
            fcart2    -0.0000000000E+00 -0.0000000000E+00 -3.0543126148E-03
                      -0.0000000000E+00 -0.0000000000E+00  1.0742918573E-03
                      -0.0000000000E+00 -0.0000000000E+00 -1.7211082471E-03
                      -0.0000000000E+00 -0.0000000000E+00  1.7211082471E-03
                      -0.0000000000E+00 -0.0000000000E+00 -1.0742918573E-03
                      -0.0000000000E+00 -0.0000000000E+00  3.0543126148E-03
            fcart3    -0.0000000000E+00 -0.0000000000E+00 -3.1677854872E-03
                      -0.0000000000E+00 -0.0000000000E+00  7.3536089586E-04
                      -0.0000000000E+00 -0.0000000000E+00  6.6238046472E-04
                      -0.0000000000E+00 -0.0000000000E+00  6.1954409856E-20
                      -0.0000000000E+00 -0.0000000000E+00 -6.6238046472E-04
                      -0.0000000000E+00 -0.0000000000E+00 -7.3536089586E-04
                      -0.0000000000E+00 -0.0000000000E+00  3.1677854872E-03
           iprcel          45
           jdtset        1    2    3
              kpt      0.00000000E+00  1.25000000E-01  0.00000000E+00
                       0.00000000E+00  3.75000000E-01  0.00000000E+00
                       1.25000000E-01  2.50000000E-01  0.00000000E+00
                       1.25000000E-01  5.00000000E-01  0.00000000E+00
                       2.50000000E-01  3.75000000E-01  0.00000000E+00
                       3.75000000E-01  5.00000000E-01  0.00000000E+00
         kptrlatt        4   -4    0      4    4    0      0    0    1
          kptrlen      3.00223636E+01
P           mkmem           6
            natom1          5
            natom2          6
            natom3          7
            nband1         11
            nband2         12
            nband3         15
           ndtset           3
            ngfft1         12      12      60
            ngfft2         12      12      72
            ngfft3         12      12      80
             nkpt           6
            nstep          10
             nsym          16
           ntypat           1
              occ1     2.000000  2.000000  2.000000  2.000000  2.000020  2.077611
                       0.033735  0.003116  0.000202  0.000000  0.000000
                       2.000000  2.000000  2.000000  2.000004  2.000004  2.000846
                       2.092279  2.132971  0.731955  0.195938  0.001345
                       2.000000  2.000000  2.000000  2.000000  2.005485  1.996383
                       1.940670  0.763957  0.001698  0.004939  0.000056
                       2.000000  2.000000  2.000000  2.000000  2.000014  2.000026
                       2.054491  2.095052  0.463928  0.020196  0.004787
                       2.000000  2.000000  2.000000  2.001427  2.001789  2.042658
                       1.861459  1.541692  0.005015  0.002251  0.003180
                       2.000003  2.000003  2.000415  2.000913  2.088078  2.111386
                       0.671577  0.413396  0.260422  0.199853  0.000114
              occ2     2.000000  2.000000  2.000000  2.000000  2.000000  2.000129
                       2.041072  0.014710  0.003602  0.002960  0.000556  0.000005
                       2.000000  2.000000  2.000000  2.000000  2.000002  2.000062
                       2.000199  2.015984  2.141124  2.068588  0.760883  0.054300
                       2.000000  2.000000  2.000000  2.000000  2.000000  2.016947
                       2.096492  2.045980  1.320345  0.078195  0.004689  0.004137
                       2.000000  2.000000  2.000000  2.000000  2.000000  2.000000
                       2.000830  2.000830  2.140821  2.140821  0.043585  0.043585
                       2.000000  2.000000  2.000000  2.000001  2.000954  2.009613
                       2.020301  2.139721  1.207315  0.776636  0.005719  0.002092
                       2.000002  2.000002  2.000096  2.000096  2.013105  2.013105
                       2.091736  2.091736  0.306509  0.306509  0.122091  0.122090
              occ3     2.000000  2.000000  2.000000  2.000000  2.000000  2.000000
                       2.000229  2.052152  0.356289  0.003894  0.001863  0.000287
                       0.000071  0.000017  0.000000
                       2.000000  2.000000  2.000000  2.000000  2.000000  2.000002
                       2.000038  2.001085  2.002704  2.091181  2.134343  1.432545
                       0.704940  0.000087  0.001959
                       2.000000  2.000000  2.000000  2.000000  2.000000  2.000002
                       2.023726  2.062471  2.059101  1.609888  0.425446  0.000531
                       0.001409  0.000985  0.000014
                       2.000000  2.000000  2.000000  2.000000  2.000000  2.000000
                       2.000006  2.000015  2.007062  2.011888  2.102173  1.940693
                       0.098851  0.000098  0.005203
                       2.000000  2.000000  2.000000  2.000000  2.000044  2.000839
                       2.006464  2.055453  2.077112  1.902754  1.065789  0.137476
                       0.003424  0.001620  0.005186
                       2.000001  2.000001  2.000027  2.000037  2.001412  2.002898
                       2.066302  2.095970  1.665017  1.538810  0.348244  0.311353
                       0.094236  0.044084  0.002465
           occopt           4
            rprim1     5.0000000000E-01 -5.0000000000E-01  0.0000000000E+00
                       5.0000000000E-01  5.0000000000E-01  0.0000000000E+00
                       0.0000000000E+00  0.0000000000E+00  3.5000000000E+00
            rprim2     5.0000000000E-01 -5.0000000000E-01  0.0000000000E+00
                       5.0000000000E-01  5.0000000000E-01  0.0000000000E+00
                       0.0000000000E+00  0.0000000000E+00  4.0000000000E+00
            rprim3     5.0000000000E-01 -5.0000000000E-01  0.0000000000E+00
                       5.0000000000E-01  5.0000000000E-01  0.0000000000E+00
                       0.0000000000E+00  0.0000000000E+00  4.5000000000E+00
           shiftk     -5.00000000E-01  5.00000000E-01  0.00000000E+00
          spgroup1        123
          spgroup2        129
          spgroup3        123
           strten1     1.1935985367E-04  1.1935985367E-04 -4.4427480467E-05
                       0.0000000000E+00  0.0000000000E+00  0.0000000000E+00
           strten2     1.0850736262E-04  1.0850736262E-04 -1.6640762734E-05
                       0.0000000000E+00  0.0000000000E+00  0.0000000000E+00
           strten3     1.0647242172E-04  1.0647242172E-04 -3.8791278403E-05
                       0.0000000000E+00  0.0000000000E+00  0.0000000000E+00
           symrel      1  0  0   0  1  0   0  0  1      -1  0  0   0 -1  0   0  0 -1
                      -1  0  0   0  1  0   0  0 -1       1  0  0   0 -1  0   0  0  1
                      -1  0  0   0 -1  0   0  0  1       1  0  0   0  1  0   0  0 -1
                       1  0  0   0 -1  0   0  0 -1      -1  0  0   0  1  0   0  0  1
                       0  1  0   1  0  0   0  0  1       0 -1  0  -1  0  0   0  0 -1
                       0 -1  0   1  0  0   0  0 -1       0  1  0  -1  0  0   0  0  1
                       0 -1  0  -1  0  0   0  0  1       0  1  0   1  0  0   0  0 -1
                       0  1  0  -1  0  0   0  0 -1       0 -1  0   1  0  0   0  0  1
            tnons1     0.0000000  0.0000000  0.0000000     0.0000000  0.0000000 -0.4285714
                       0.0000000  0.0000000 -0.4285714     0.0000000  0.0000000  0.0000000
                       0.0000000  0.0000000  0.0000000     0.0000000  0.0000000 -0.4285714
                       0.0000000  0.0000000 -0.4285714     0.0000000  0.0000000  0.0000000
                       0.0000000  0.0000000  0.0000000     0.0000000  0.0000000 -0.4285714
                       0.0000000  0.0000000 -0.4285714     0.0000000  0.0000000  0.0000000
                       0.0000000  0.0000000  0.0000000     0.0000000  0.0000000 -0.4285714
                       0.0000000  0.0000000 -0.4285714     0.0000000  0.0000000  0.0000000
            tnons2     0.0000000  0.0000000  0.0000000     0.5000000  0.5000000 -0.3750000
                       0.5000000  0.5000000 -0.3750000     0.0000000  0.0000000  0.0000000
                       0.0000000  0.0000000  0.0000000     0.5000000  0.5000000 -0.3750000
                       0.5000000  0.5000000 -0.3750000     0.0000000  0.0000000  0.0000000
                       0.0000000  0.0000000  0.0000000     0.5000000  0.5000000 -0.3750000
                       0.5000000  0.5000000 -0.3750000     0.0000000  0.0000000  0.0000000
                       0.0000000  0.0000000  0.0000000     0.5000000  0.5000000 -0.3750000
                       0.5000000  0.5000000 -0.3750000     0.0000000  0.0000000  0.0000000
            tnons3     0.0000000  0.0000000  0.0000000     0.0000000  0.0000000 -0.3333333
                       0.0000000  0.0000000 -0.3333333     0.0000000  0.0000000  0.0000000
                       0.0000000  0.0000000  0.0000000     0.0000000  0.0000000 -0.3333333
                       0.0000000  0.0000000 -0.3333333     0.0000000  0.0000000  0.0000000
                       0.0000000  0.0000000  0.0000000     0.0000000  0.0000000 -0.3333333
                       0.0000000  0.0000000 -0.3333333     0.0000000  0.0000000  0.0000000
                       0.0000000  0.0000000  0.0000000     0.0000000  0.0000000 -0.3333333
                       0.0000000  0.0000000 -0.3333333     0.0000000  0.0000000  0.0000000
           toldfe      1.00000000E-06 Hartree
            typat1     1  1  1  1  1
            typat2     1  1  1  1  1  1
            typat3     1  1  1  1  1  1  1
              wtk        0.12500    0.12500    0.25000    0.12500    0.25000    0.12500
           xangst1     0.0000000000E+00  0.0000000000E+00  0.0000000000E+00
                       0.0000000000E+00  1.9858938206E+00  1.9858938206E+00
                       0.0000000000E+00  0.0000000000E+00  3.9717876413E+00
                       0.0000000000E+00  1.9858938206E+00  5.9576814619E+00
                       0.0000000000E+00  0.0000000000E+00  7.9435752826E+00
           xangst2     0.0000000000E+00  0.0000000000E+00  0.0000000000E+00
                       0.0000000000E+00  1.9858938206E+00  1.9858938206E+00
                       0.0000000000E+00  0.0000000000E+00  3.9717876413E+00
                       0.0000000000E+00  1.9858938206E+00  5.9576814619E+00
                       0.0000000000E+00  0.0000000000E+00  7.9435752826E+00
                       0.0000000000E+00  1.9858938206E+00  9.9294691032E+00
           xangst3     0.0000000000E+00  0.0000000000E+00  0.0000000000E+00
                       0.0000000000E+00  1.9858938206E+00  1.9858938206E+00
                       0.0000000000E+00  0.0000000000E+00  3.9717876413E+00
                       0.0000000000E+00  1.9858938206E+00  5.9576814619E+00
                       0.0000000000E+00  0.0000000000E+00  7.9435752826E+00
                       0.0000000000E+00  1.9858938206E+00  9.9294691032E+00
                       0.0000000000E+00  0.0000000000E+00  1.1915362924E+01
            xcart1     0.0000000000E+00  0.0000000000E+00  0.0000000000E+00
                       0.0000000000E+00  3.7527954500E+00  3.7527954500E+00
                       0.0000000000E+00  0.0000000000E+00  7.5055909000E+00
                       0.0000000000E+00  3.7527954500E+00  1.1258386350E+01
                       0.0000000000E+00  0.0000000000E+00  1.5011181800E+01
            xcart2     0.0000000000E+00  0.0000000000E+00  0.0000000000E+00
                       0.0000000000E+00  3.7527954500E+00  3.7527954500E+00
                       0.0000000000E+00  0.0000000000E+00  7.5055909000E+00
                       0.0000000000E+00  3.7527954500E+00  1.1258386350E+01
                       0.0000000000E+00  0.0000000000E+00  1.5011181800E+01
                       0.0000000000E+00  3.7527954500E+00  1.8763977250E+01
            xcart3     0.0000000000E+00  0.0000000000E+00  0.0000000000E+00
                       0.0000000000E+00  3.7527954500E+00  3.7527954500E+00
                       0.0000000000E+00  0.0000000000E+00  7.5055909000E+00
                       0.0000000000E+00  3.7527954500E+00  1.1258386350E+01
                       0.0000000000E+00  0.0000000000E+00  1.5011181800E+01
                       0.0000000000E+00  3.7527954500E+00  1.8763977250E+01
                       0.0000000000E+00  0.0000000000E+00  2.2516772700E+01
             xred1     0.0000000000E+00  0.0000000000E+00  0.0000000000E+00
                      -5.0000000000E-01  5.0000000000E-01  1.4285714286E-01
                       0.0000000000E+00  0.0000000000E+00  2.8571428571E-01
                      -5.0000000000E-01  5.0000000000E-01  4.2857142857E-01
                       0.0000000000E+00  0.0000000000E+00  5.7142857143E-01
             xred2     0.0000000000E+00  0.0000000000E+00  0.0000000000E+00
                      -5.0000000000E-01  5.0000000000E-01  1.2500000000E-01
                       0.0000000000E+00  0.0000000000E+00  2.5000000000E-01
                      -5.0000000000E-01  5.0000000000E-01  3.7500000000E-01
                       0.0000000000E+00  0.0000000000E+00  5.0000000000E-01
                      -5.0000000000E-01  5.0000000000E-01  6.2500000000E-01
             xred3     0.0000000000E+00  0.0000000000E+00  0.0000000000E+00
                      -5.0000000000E-01  5.0000000000E-01  1.1111111111E-01
                       0.0000000000E+00  0.0000000000E+00  2.2222222222E-01
                      -5.0000000000E-01  5.0000000000E-01  3.3333333333E-01
                       0.0000000000E+00  0.0000000000E+00  4.4444444444E-01
                      -5.0000000000E-01  5.0000000000E-01  5.5555555556E-01
                       0.0000000000E+00  0.0000000000E+00  6.6666666667E-01
            znucl       13.00000

================================================================================


- Timing analysis has been suppressed with timopt=0



================================================================================

 Suggested references for the acknowledgment of ABINIT usage.

 The users of ABINIT have little formal obligations with respect to the ABINIT group
 (those specified in the GNU General Public License, http://www.gnu.org/copyleft/gpl.txt).
 However, it is common practice in the scientific literature,
 to acknowledge the efforts of people that have made the research possible.
 In this spirit, please find below suggested citations of work written by ABINIT developers,
 corresponding to implementations inside of ABINIT that you have used in the present run.
 Note also that it will be of great value to readers of publications presenting these results,
 to read papers enabling them to understand the theoretical formalism and details
 of the ABINIT implementation.
 For information on why they are suggested, see also http://www.abinit.org/about/?text=acknowledgments.

 [1] Preconditioning of self-consistent-field cycles in density functional theory : the extrapolar method
 P.-M. Anglade, X. Gonze, Phys. Rev. B 78, 045126 (2008).
 Comment : to be cited in case the extrapolar conditioner is used, i.e. non-vanishing iprcel.

 [2] Ab initio pseudopotentials for electronic structure calculations of poly-atomic systems, 
 using density-functional theory.
 M. Fuchs, M. Scheffler, Comput. Phys. Commun. 119, 67 (1999).
 Comment : Some pseudopotential generated using the FHI code were used.

 [3] ABINIT : First-principles approach of materials and nanosystem properties.
 X. Gonze, B. Amadon, P.-M. Anglade, J.-M. Beuken, F. Bottin, P. Boulanger, F. Bruneval,
 D. Caliste, R. Caracas, M. Cote, T. Deutsch, L. Genovese, Ph. Ghosez, M. Giantomassi
 S. Goedecker, D.R. Hamann, P. Hermet, F. Jollet, G. Jomard, S. Leroux, M. Mancini, S. Mazevet,
 M.J.T. Oliveira, G. Onida, Y. Pouillon, T. Rangel, G.-M. Rignanese, D. Sangalli, R. Shaltaf,
 M. Torrent, M.J. Verstraete, G. Zerah, J.W. Zwanziger
 Computer Phys. Comm. 180, 2582-2615 (2009).
 Comment : the third generic paper describing the ABINIT project.
 Note that a version of this paper, that is not formatted for Computer Phys. Comm. 
 is available at http://www.abinit.org/about/ABINIT_CPC_v10.pdf .
 The licence allows the authors to put it on the Web.

 [4] A brief introduction to the ABINIT software package.
 X. Gonze, G.-M. Rignanese, M. Verstraete, J.-M. Beuken, Y. Pouillon, R. Caracas, F. Jollet,
 M. Torrent, G. Zerah, M. Mikami, Ph. Ghosez, M. Veithen, J.-Y. Raty, V. Olevano, F. Bruneval,
 L. Reining, R. Godby, G. Onida, D.R. Hamann, and D.C. Allan.
 Z. Kristallogr. 220, 558-562 (2005).
 Comment : the second generic paper describing the ABINIT project. Note that this paper
 should be cited especially if you are using the GW part of ABINIT, as several authors
 of this part are not in the list of authors of the first or third paper.
 The .pdf of the latter paper is available at http://www.abinit.org/about/zfk_0505-06_558-562.pdf.
 Note that it should not redistributed (Copyright by Oldenburg Wissenshaftverlag,
 the licence allows the authors to put it on the Web).


 And optionally :

 [5] First-principles computation of material properties : the ABINIT software project. 
 X. Gonze, J.-M. Beuken, R. Caracas, F. Detraux, M. Fuchs, G.-M. Rignanese, L. Sindic,
 M. Verstraete, G. Zerah, F. Jollet, M. Torrent, A. Roy, M. Mikami, Ph. Ghosez, J.-Y. Raty, D.C. Allan.
 Computational Materials Science 25, 478-492 (2002). http://dx.doi.org/10.1016/S0927-0256(02)00325-7
 Comment : the original paper describing the ABINIT project.
-
- Proc.   0 individual time (sec): cpu=         11.1  wall=         11.7

================================================================================

 Calculation completed.
.Delivered    8 WARNINGs and   6 COMMENTs to log file.
+Overall time at end (sec) : cpu=         11.1  wall=         11.7
