
.Version 7.4.3 of ABINIT 
.(MPI version, prepared for a i686_cygwin_gnu4.7 computer) 

.Copyright (C) 1998-2013 ABINIT group . 
 ABINIT comes with ABSOLUTELY NO WARRANTY.
 It is free software, and you are welcome to redistribute it
 under certain conditions (GNU General Public License,
 see ~abinit/COPYING or http://www.gnu.org/copyleft/gpl.txt).

 ABINIT is a project of the Universite Catholique de Louvain,
 Corning Inc. and other collaborators, see ~abinit/doc/developers/contributors.txt .
 Please read ~abinit/doc/users/acknowledgments.html for suggested
 acknowledgments of the ABINIT effort.
 For more information, see http://www.abinit.org .

.Starting date : Mon  4 Jun 2018.
- ( at 12h48 )
  

 herald :  WARNING -
  The starting date is more than 3 years after the initial release
  of this version of ABINIT, namely Aug 2013.
  This version of ABINIT is not supported anymore.
  Action : please, switch to a more recent version of ABINIT.
- input  file    -> tbase3_3.in
- output file    -> tbase3_3.out
- root for input  files -> tbase3_xi
- root for output files -> tbase3_xo


 DATASET    1 : space group Fd -3 m (#227); Bravais cF (face-center cubic)
================================================================================
 Values of the parameters that define the memory need for DATASET  1.
   intxc =         0  ionmov =         0    iscf =         7 xclevel =         1
  lmnmax =         2   lnmax =         2   mband =         5  mffmem =         1
P  mgfft =        20   mkmem =         2 mpssoang=         3     mpw =       289
  mqgrid =      3001   natom =         2    nfft =      8000    nkpt =         2
  nloalg =         4  nspden =         1 nspinor =         1  nsppol =         1
    nsym =        48  n1xccc =      2501  ntypat =         1  occopt =         1
================================================================================
P This job should need less than                       2.905 Mbytes of memory.
  Rough estimation (10% accuracy) of disk space for files :
_ WF disk file :      0.046 Mbytes ; DEN or POT disk file :      0.063 Mbytes.
================================================================================


 DATASET    2 : space group Fd -3 m (#227); Bravais cF (face-center cubic)
================================================================================
 Values of the parameters that define the memory need for DATASET  2.
   intxc =         0  ionmov =         0    iscf =         7 xclevel =         1
  lmnmax =         2   lnmax =         2   mband =         5  mffmem =         1
P  mgfft =        20   mkmem =        10 mpssoang=         3     mpw =       293
  mqgrid =      3001   natom =         2    nfft =      8000    nkpt =        10
  nloalg =         4  nspden =         1 nspinor =         1  nsppol =         1
    nsym =        48  n1xccc =      2501  ntypat =         1  occopt =         1
================================================================================
P This job should need less than                       3.119 Mbytes of memory.
  Rough estimation (10% accuracy) of disk space for files :
_ WF disk file :      0.226 Mbytes ; DEN or POT disk file :      0.063 Mbytes.
================================================================================


 DATASET    3 : space group Fd -3 m (#227); Bravais cF (face-center cubic)
================================================================================
 Values of the parameters that define the memory need for DATASET  3.
   intxc =         0  ionmov =         0    iscf =         7 xclevel =         1
  lmnmax =         2   lnmax =         2   mband =         5  mffmem =         1
P  mgfft =        20   mkmem =        28 mpssoang=         3     mpw =       295
  mqgrid =      3001   natom =         2    nfft =      8000    nkpt =        28
  nloalg =         4  nspden =         1 nspinor =         1  nsppol =         1
    nsym =        48  n1xccc =      2501  ntypat =         1  occopt =         1
================================================================================
P This job should need less than                       3.601 Mbytes of memory.
  Rough estimation (10% accuracy) of disk space for files :
_ WF disk file :      0.632 Mbytes ; DEN or POT disk file :      0.063 Mbytes.
================================================================================


 DATASET    4 : space group Fd -3 m (#227); Bravais cF (face-center cubic)
================================================================================
 Values of the parameters that define the memory need for DATASET  4.
   intxc =         0  ionmov =         0    iscf =         7 xclevel =         1
  lmnmax =         2   lnmax =         2   mband =         5  mffmem =         1
P  mgfft =        20   mkmem =        60 mpssoang=         3     mpw =       297
  mqgrid =      3001   natom =         2    nfft =      8000    nkpt =        60
  nloalg =         4  nspden =         1 nspinor =         1  nsppol =         1
    nsym =        48  n1xccc =      2501  ntypat =         1  occopt =         1
================================================================================
P This job should need less than                       4.465 Mbytes of memory.
  Rough estimation (10% accuracy) of disk space for files :
_ WF disk file :      1.362 Mbytes ; DEN or POT disk file :      0.063 Mbytes.
================================================================================

--------------------------------------------------------------------------------
------------- Echo of variables that govern the present computation ------------
--------------------------------------------------------------------------------
-
- outvars: echo of selected default values                                      
-   accesswff0 =  0 , fftalg0 =112 , wfoptalg0 =  0
-
- outvars: echo of global parameters not present in the input file              
-  max_nthreads =    0
-
 -outvars: echo values of preprocessed input variables --------
            acell      1.0180000000E+01  1.0180000000E+01  1.0180000000E+01 Bohr
              amu      2.80855000E+01
           diemac      1.20000000E+01
             ecut      8.00000000E+00 Hartree
           getwfk          -1
           jdtset        1    2    3    4
              kpt1    -2.50000000E-01  5.00000000E-01  0.00000000E+00
                      -2.50000000E-01  0.00000000E+00  0.00000000E+00
              kpt2    -1.25000000E-01 -2.50000000E-01  0.00000000E+00
                      -1.25000000E-01  5.00000000E-01  0.00000000E+00
                      -2.50000000E-01 -3.75000000E-01  0.00000000E+00
                      -1.25000000E-01 -3.75000000E-01  1.25000000E-01
                      -1.25000000E-01  2.50000000E-01  0.00000000E+00
                      -2.50000000E-01  3.75000000E-01  0.00000000E+00
                      -3.75000000E-01  5.00000000E-01  0.00000000E+00
                      -2.50000000E-01  5.00000000E-01  1.25000000E-01
                      -1.25000000E-01  0.00000000E+00  0.00000000E+00
                      -3.75000000E-01  0.00000000E+00  0.00000000E+00
              kpt3    -8.33333333E-02 -1.66666667E-01  0.00000000E+00
                      -8.33333333E-02 -3.33333333E-01  0.00000000E+00
                      -1.66666667E-01 -2.50000000E-01  0.00000000E+00
                      -8.33333333E-02 -2.50000000E-01  8.33333333E-02
                      -8.33333333E-02  5.00000000E-01  0.00000000E+00
                      -1.66666667E-01 -4.16666667E-01  0.00000000E+00
                      -8.33333333E-02 -4.16666667E-01  8.33333333E-02
                      -2.50000000E-01 -3.33333333E-01  0.00000000E+00
                      -1.66666667E-01 -3.33333333E-01  8.33333333E-02
                      -8.33333333E-02 -3.33333333E-01  1.66666667E-01
                      -8.33333333E-02  3.33333333E-01  0.00000000E+00
                      -1.66666667E-01  4.16666667E-01  0.00000000E+00
                      -2.50000000E-01  5.00000000E-01  0.00000000E+00
                      -1.66666667E-01  5.00000000E-01  8.33333333E-02
                      -3.33333333E-01 -4.16666667E-01  0.00000000E+00
                      -2.50000000E-01 -4.16666667E-01  8.33333333E-02
                      -1.66666667E-01 -4.16666667E-01  1.66666667E-01
                      -8.33333333E-02 -4.16666667E-01  2.50000000E-01
                      -8.33333333E-02  1.66666667E-01  0.00000000E+00
                      -1.66666667E-01  2.50000000E-01  0.00000000E+00
                      -2.50000000E-01  3.33333333E-01  0.00000000E+00
                      -3.33333333E-01  4.16666667E-01  0.00000000E+00
                      -4.16666667E-01  5.00000000E-01  0.00000000E+00
                      -3.33333333E-01  5.00000000E-01  8.33333333E-02
                      -2.50000000E-01  5.00000000E-01  1.66666667E-01
                      -8.33333333E-02  0.00000000E+00  0.00000000E+00
                      -2.50000000E-01  0.00000000E+00  0.00000000E+00
                      -4.16666667E-01  0.00000000E+00  0.00000000E+00
              kpt4    -6.25000000E-02 -1.25000000E-01  0.00000000E+00
                      -6.25000000E-02 -2.50000000E-01  0.00000000E+00
                      -1.25000000E-01 -1.87500000E-01  0.00000000E+00
                      -6.25000000E-02 -1.87500000E-01  6.25000000E-02
                      -6.25000000E-02 -3.75000000E-01  0.00000000E+00
                      -1.25000000E-01 -3.12500000E-01  0.00000000E+00
                      -6.25000000E-02 -3.12500000E-01  6.25000000E-02
                      -1.87500000E-01 -2.50000000E-01  0.00000000E+00
                      -1.25000000E-01 -2.50000000E-01  6.25000000E-02
                      -6.25000000E-02 -2.50000000E-01  1.25000000E-01
                      -6.25000000E-02  5.00000000E-01  0.00000000E+00
                      -1.25000000E-01 -4.37500000E-01  0.00000000E+00
                      -6.25000000E-02 -4.37500000E-01  6.25000000E-02
                      -1.87500000E-01 -3.75000000E-01  0.00000000E+00
                      -1.25000000E-01 -3.75000000E-01  6.25000000E-02
                      -6.25000000E-02 -3.75000000E-01  1.25000000E-01
                      -2.50000000E-01 -3.12500000E-01  0.00000000E+00
                      -1.87500000E-01 -3.12500000E-01  6.25000000E-02
                      -1.25000000E-01 -3.12500000E-01  1.25000000E-01
                      -6.25000000E-02 -3.12500000E-01  1.87500000E-01
                      -6.25000000E-02  3.75000000E-01  0.00000000E+00
                      -1.25000000E-01  4.37500000E-01  0.00000000E+00
                      -1.87500000E-01  5.00000000E-01  0.00000000E+00
                      -1.25000000E-01  5.00000000E-01  6.25000000E-02
                      -2.50000000E-01 -4.37500000E-01  0.00000000E+00
                      -1.87500000E-01 -4.37500000E-01  6.25000000E-02
                      -1.25000000E-01 -4.37500000E-01  1.25000000E-01
                      -6.25000000E-02 -4.37500000E-01  1.87500000E-01
                      -3.12500000E-01 -3.75000000E-01  0.00000000E+00
                      -2.50000000E-01 -3.75000000E-01  6.25000000E-02
                      -1.87500000E-01 -3.75000000E-01  1.25000000E-01
                      -1.25000000E-01 -3.75000000E-01  1.87500000E-01
                      -6.25000000E-02 -3.75000000E-01  2.50000000E-01
                      -6.25000000E-02  2.50000000E-01  0.00000000E+00
                      -1.25000000E-01  3.12500000E-01  0.00000000E+00
                      -1.87500000E-01  3.75000000E-01  0.00000000E+00
                      -2.50000000E-01  4.37500000E-01  0.00000000E+00
                      -3.12500000E-01  5.00000000E-01  0.00000000E+00
                      -2.50000000E-01  5.00000000E-01  6.25000000E-02
                      -1.87500000E-01  5.00000000E-01  1.25000000E-01
                      -3.75000000E-01 -4.37500000E-01  0.00000000E+00
                      -3.12500000E-01 -4.37500000E-01  6.25000000E-02
                      -2.50000000E-01 -4.37500000E-01  1.25000000E-01
                      -1.87500000E-01 -4.37500000E-01  1.87500000E-01
                      -1.25000000E-01 -4.37500000E-01  2.50000000E-01
                      -6.25000000E-02 -4.37500000E-01  3.12500000E-01
                      -6.25000000E-02  1.25000000E-01  0.00000000E+00
                      -1.25000000E-01  1.87500000E-01  0.00000000E+00
                      -1.87500000E-01  2.50000000E-01  0.00000000E+00
                      -2.50000000E-01  3.12500000E-01  0.00000000E+00
                       outvar_i_n : Printing only first  50 k-points.
         kptrlatt1       2   -2    2     -2    2    2     -2   -2    2
         kptrlatt2       4   -4    4     -4    4    4     -4   -4    4
         kptrlatt3       6   -6    6     -6    6    6     -6   -6    6
         kptrlatt4       8   -8    8     -8    8    8     -8   -8    8
          kptrlen1     2.03600000E+01
          kptrlen2     4.07200000E+01
          kptrlen3     6.10800000E+01
          kptrlen4     8.14400000E+01
P           mkmem1          2
P           mkmem2         10
P           mkmem3         28
P           mkmem4         60
            natom           2
            nband1          5
            nband2          5
            nband3          5
            nband4          5
           ndtset           4
            ngfft          20      20      20
             nkpt1          2
             nkpt2         10
             nkpt3         28
             nkpt4         60
            nstep          10
             nsym          48
           ntypat           1
              occ1     2.000000  2.000000  2.000000  2.000000  0.000000
              occ2     2.000000  2.000000  2.000000  2.000000  0.000000
              occ3     2.000000  2.000000  2.000000  2.000000  0.000000
              occ4     2.000000  2.000000  2.000000  2.000000  0.000000
            rprim      0.0000000000E+00  5.0000000000E-01  5.0000000000E-01
                       5.0000000000E-01  0.0000000000E+00  5.0000000000E-01
                       5.0000000000E-01  5.0000000000E-01  0.0000000000E+00
           shiftk      5.00000000E-01  5.00000000E-01  5.00000000E-01
          spgroup         227
           symrel      1  0  0   0  1  0   0  0  1      -1  0  0   0 -1  0   0  0 -1
                       0 -1  1   0 -1  0   1 -1  0       0  1 -1   0  1  0  -1  1  0
                      -1  0  0  -1  0  1  -1  1  0       1  0  0   1  0 -1   1 -1  0
                       0  1 -1   1  0 -1   0  0 -1       0 -1  1  -1  0  1   0  0  1
                      -1  0  0  -1  1  0  -1  0  1       1  0  0   1 -1  0   1  0 -1
                       0 -1  1   1 -1  0   0 -1  0       0  1 -1  -1  1  0   0  1  0
                       1  0  0   0  0  1   0  1  0      -1  0  0   0  0 -1   0 -1  0
                       0  1 -1   0  0 -1   1  0 -1       0 -1  1   0  0  1  -1  0  1
                      -1  0  1  -1  1  0  -1  0  0       1  0 -1   1 -1  0   1  0  0
                       0 -1  0   1 -1  0   0 -1  1       0  1  0  -1  1  0   0  1 -1
                       1  0 -1   0  0 -1   0  1 -1      -1  0  1   0  0  1   0 -1  1
                       0  1  0   0  0  1   1  0  0       0 -1  0   0  0 -1  -1  0  0
                       1  0 -1   0  1 -1   0  0 -1      -1  0  1   0 -1  1   0  0  1
                       0 -1  0   0 -1  1   1 -1  0       0  1  0   0  1 -1  -1  1  0
                      -1  0  1  -1  0  0  -1  1  0       1  0 -1   1  0  0   1 -1  0
                       0  1  0   1  0  0   0  0  1       0 -1  0  -1  0  0   0  0 -1
                       0  0 -1   0  1 -1   1  0 -1       0  0  1   0 -1  1  -1  0  1
                       1 -1  0   0 -1  1   0 -1  0      -1  1  0   0  1 -1   0  1  0
                       0  0  1   1  0  0   0  1  0       0  0 -1  -1  0  0   0 -1  0
                      -1  1  0  -1  0  0  -1  0  1       1 -1  0   1  0  0   1  0 -1
                       0  0  1   0  1  0   1  0  0       0  0 -1   0 -1  0  -1  0  0
                       1 -1  0   0 -1  0   0 -1  1      -1  1  0   0  1  0   0  1 -1
                       0  0 -1   1  0 -1   0  1 -1       0  0  1  -1  0  1   0 -1  1
                      -1  1  0  -1  0  1  -1  0  0       1 -1  0   1  0 -1   1  0  0
            tnons      0.0000000  0.0000000  0.0000000     0.2500000  0.2500000  0.2500000
                       0.0000000  0.0000000  0.0000000     0.2500000  0.2500000  0.2500000
                       0.0000000  0.0000000  0.0000000     0.2500000  0.2500000  0.2500000
                       0.0000000  0.0000000  0.0000000     0.2500000  0.2500000  0.2500000
                       0.0000000  0.0000000  0.0000000     0.2500000  0.2500000  0.2500000
                       0.0000000  0.0000000  0.0000000     0.2500000  0.2500000  0.2500000
                       0.0000000  0.0000000  0.0000000     0.2500000  0.2500000  0.2500000
                       0.0000000  0.0000000  0.0000000     0.2500000  0.2500000  0.2500000
                       0.0000000  0.0000000  0.0000000     0.2500000  0.2500000  0.2500000
                       0.0000000  0.0000000  0.0000000     0.2500000  0.2500000  0.2500000
                       0.0000000  0.0000000  0.0000000     0.2500000  0.2500000  0.2500000
                       0.0000000  0.0000000  0.0000000     0.2500000  0.2500000  0.2500000
                       0.0000000  0.0000000  0.0000000     0.2500000  0.2500000  0.2500000
                       0.0000000  0.0000000  0.0000000     0.2500000  0.2500000  0.2500000
                       0.0000000  0.0000000  0.0000000     0.2500000  0.2500000  0.2500000
                       0.0000000  0.0000000  0.0000000     0.2500000  0.2500000  0.2500000
                       0.0000000  0.0000000  0.0000000     0.2500000  0.2500000  0.2500000
                       0.0000000  0.0000000  0.0000000     0.2500000  0.2500000  0.2500000
                       0.0000000  0.0000000  0.0000000     0.2500000  0.2500000  0.2500000
                       0.0000000  0.0000000  0.0000000     0.2500000  0.2500000  0.2500000
                       0.0000000  0.0000000  0.0000000     0.2500000  0.2500000  0.2500000
                       0.0000000  0.0000000  0.0000000     0.2500000  0.2500000  0.2500000
                       0.0000000  0.0000000  0.0000000     0.2500000  0.2500000  0.2500000
                       0.0000000  0.0000000  0.0000000     0.2500000  0.2500000  0.2500000
           toldfe      1.00000000E-06 Hartree
            typat      1  1
              wtk1       0.75000    0.25000
              wtk2       0.09375    0.09375    0.09375    0.18750    0.09375    0.09375
                         0.09375    0.18750    0.03125    0.03125
              wtk3       0.02778    0.02778    0.02778    0.05556    0.02778    0.02778
                         0.05556    0.02778    0.05556    0.05556    0.02778    0.02778
                         0.02778    0.05556    0.02778    0.05556    0.05556    0.05556
                         0.02778    0.02778    0.02778    0.02778    0.02778    0.05556
                         0.05556    0.00926    0.00926    0.00926
              wtk4       0.01172    0.01172    0.01172    0.02344    0.01172    0.01172
                         0.02344    0.01172    0.02344    0.02344    0.01172    0.01172
                         0.02344    0.01172    0.02344    0.02344    0.01172    0.02344
                         0.02344    0.02344    0.01172    0.01172    0.01172    0.02344
                         0.01172    0.02344    0.02344    0.02344    0.01172    0.02344
                         0.02344    0.02344    0.02344    0.01172    0.01172    0.01172
                         0.01172    0.01172    0.02344    0.02344    0.01172    0.02344
                         0.02344    0.02344    0.02344    0.02344    0.01172    0.01172
                         0.01172    0.01172
                       outvars : Printing only first  50 k-points.
           xangst      0.0000000000E+00  0.0000000000E+00  0.0000000000E+00
                       1.3467559959E+00  1.3467559959E+00  1.3467559959E+00
            xcart      0.0000000000E+00  0.0000000000E+00  0.0000000000E+00
                       2.5450000000E+00  2.5450000000E+00  2.5450000000E+00
             xred      0.0000000000E+00  0.0000000000E+00  0.0000000000E+00
                       2.5000000000E-01  2.5000000000E-01  2.5000000000E-01
            znucl       14.00000

================================================================================

 chkinp: Checking input parameters for consistency, jdtset=   1.

 chkinp: Checking input parameters for consistency, jdtset=   2.

 chkinp: Checking input parameters for consistency, jdtset=   3.

 chkinp: Checking input parameters for consistency, jdtset=   4.

================================================================================
== DATASET  1 ==================================================================
-   nproc =    1

 Exchange-correlation functional for the present dataset will be:
  LDA: new Teter (4/93) with spin-polarized option - ixc=1
 Citation for XC functional:
  S. Goedecker, M. Teter, J. Huetter, PRB 54, 1703 (1996)

 Real(R)+Recip(G) space primitive vectors, cartesian coordinates (Bohr,Bohr^-1):
 R(1)=  0.0000000  5.0900000  5.0900000  G(1)= -0.0982318  0.0982318  0.0982318
 R(2)=  5.0900000  0.0000000  5.0900000  G(2)=  0.0982318 -0.0982318  0.0982318
 R(3)=  5.0900000  5.0900000  0.0000000  G(3)=  0.0982318  0.0982318 -0.0982318
 Unit cell volume ucvol=  2.6374446E+02 bohr^3
 Angles (23,13,12)=  6.00000000E+01  6.00000000E+01  6.00000000E+01 degrees

 getcut: wavevector=  0.0000  0.0000  0.0000  ngfft=  20  20  20
         ecut(hartree)=      8.000   => boxcut(ratio)=   2.18216

--- Pseudopotential description ------------------------------------------------
- pspini: atom type   1  psp file is 14si.pspnc
- pspatm: opening atomic psp file    14si.pspnc
-  Troullier-Martins psp for element  Si        Thu Oct 27 17:31:21 EDT 1994
- 14.00000   4.00000    940714                znucl, zion, pspdat
    1    1    2    2      2001   0.00000      pspcod,pspxc,lmax,lloc,mmax,r2well
    0   5.907  14.692    1   2.0872718        l,e99.0,e99.9,nproj,rcpsp
   0.00000000   0.00000000   0.00000000   0.00000000     rms, ekb1, ekb2, epsatm
    1   2.617   4.181    1   2.0872718        l,e99.0,e99.9,nproj,rcpsp
   0.00000000   0.00000000   0.00000000   0.00000000     rms, ekb1, ekb2, epsatm
    2   0.000   0.000    0   2.0872718        l,e99.0,e99.9,nproj,rcpsp
   0.00000000   0.00000000   0.00000000   0.00000000     rms, ekb1, ekb2, epsatm
    1.80626423934776    0.22824404341771    1.17378968127746   rchrg,fchrg,qchrg
 pspatm: epsatm=    1.43386982
         --- l  ekb(1:nproj) -->
             0    3.287949
             1    1.849886
 pspatm: atomic psp has been read  and splines computed

   2.29419171E+01                                ecore*ucvol(ha*bohr**3)
--------------------------------------------------------------------------------

P newkpt: treating      5 bands with npw=     283 for ikpt=   1 by node    0
P newkpt: treating      5 bands with npw=     289 for ikpt=   2 by node    0

_setup2: Arith. and geom. avg. npw (full set) are     284.500     284.488

================================================================================

     iter   Etot(hartree)      deltaE(h)  residm     vres2
 ETOT  1  -8.8611673348311    -8.861E+00 1.404E-03 6.305E+00
 ETOT  2  -8.8661434670646    -4.976E-03 8.033E-07 1.677E-01
 ETOT  3  -8.8662229341317    -7.947E-05 9.947E-07 3.183E-03
 ETOT  4  -8.8662238905505    -9.564E-07 1.695E-08 1.262E-05
 ETOT  5  -8.8662238959759    -5.425E-09 2.572E-10 1.890E-08

 At SCF step    5, etot is converged : 
  for the second time, diff in etot=  5.425E-09 < toldfe=  1.000E-06

 Cartesian components of stress tensor (hartree/bohr^3)
  sigma(1 1)= -1.90523665E-05  sigma(3 2)=  0.00000000E+00
  sigma(2 2)= -1.90523665E-05  sigma(3 1)=  0.00000000E+00
  sigma(3 3)= -1.90523665E-05  sigma(2 1)=  0.00000000E+00

================================================================================

 ----iterations are completed or convergence reached----

 Mean square residual over all n,k,spin=   5.7781E-11; max=  2.5715E-10
  -0.2500  0.5000  0.0000    1  7.22292E-11 kpt; spin; max resid(k); each band:
  4.33E-11 4.73E-11 2.66E-11 2.70E-12 7.22E-11
  -0.2500  0.0000  0.0000    1  2.57152E-10 kpt; spin; max resid(k); each band:
  6.13E-11 6.35E-11 1.91E-12 1.91E-12 2.57E-10
 reduced coordinates (array xred) for    2 atoms
       0.000000000000      0.000000000000      0.000000000000
       0.250000000000      0.250000000000      0.250000000000
 rms dE/dt=  0.0000E+00; max dE/dt=  0.0000E+00; dE/dt below (all hartree)
    1       0.000000000000      0.000000000000      0.000000000000
    2       0.000000000000      0.000000000000      0.000000000000

 cartesian coordinates (angstrom) at end:
    1      0.00000000000000     0.00000000000000     0.00000000000000
    2      1.34675599586155     1.34675599586155     1.34675599586155

 cartesian forces (hartree/bohr) at end:
    1     -0.00000000000000    -0.00000000000000    -0.00000000000000
    2     -0.00000000000000    -0.00000000000000    -0.00000000000000
 frms,max,avg= 0.0000000E+00 0.0000000E+00   0.000E+00  0.000E+00  0.000E+00 h/b

 cartesian forces (eV/Angstrom) at end:
    1     -0.00000000000000    -0.00000000000000    -0.00000000000000
    2     -0.00000000000000    -0.00000000000000    -0.00000000000000
 frms,max,avg= 0.0000000E+00 0.0000000E+00   0.000E+00  0.000E+00  0.000E+00 e/A
 length scales= 10.180000000000 10.180000000000 10.180000000000 bohr
              =  5.387023983446  5.387023983446  5.387023983446 angstroms
 prteigrs : about to open file tbase3_xo_DS1_EIG
 Fermi (or HOMO) energy (hartree) =   0.19383   Average Vxc (hartree)=  -0.35554
 Eigenvalues (hartree) for nkpt=   2  k points:
 kpt#   1, nband=  5, wtk=  0.75000, kpt= -0.2500  0.5000  0.0000 (reduced coord)
  -0.12169  -0.01539   0.08810   0.13897   0.27407
 kpt#   2, nband=  5, wtk=  0.25000, kpt= -0.2500  0.0000  0.0000 (reduced coord)
  -0.19429   0.07536   0.19383   0.19383   0.29567
 Total charge density [el/Bohr^3]
,     Maximum=    8.7467E-02  at reduced coord.    0.1000    0.1000    0.7000
,Next maximum=    8.7467E-02  at reduced coord.    0.1500    0.1500    0.5500
,     Minimum=    3.3124E-03  at reduced coord.    0.5000    0.5000    0.5000
,Next minimum=    3.3124E-03  at reduced coord.    0.7500    0.7500    0.7500
,  Integrated=    8.0000E+00

--------------------------------------------------------------------------------
 Components of total free energy (in Hartree) :

    Kinetic energy  =  3.06072461520598E+00
    Hartree energy  =  5.42784245946911E-01
    XC energy       = -3.54910354481202E+00
    Ewald energy    = -8.46648022654903E+00
    PspCore energy  =  8.69853998680376E-02
    Loc. psp. energy= -2.41962734691988E+00
    NL   psp  energy=  1.87849296128407E+00
    >>>>>>>>> Etotal= -8.86622389597593E+00

 Other information on the energy :
    Total energy(eV)= -2.41262221822106E+02 ; Band energy (Ha)=   2.6934684219E-01
--------------------------------------------------------------------------------

 Cartesian components of stress tensor (hartree/bohr^3)
  sigma(1 1)= -1.90523665E-05  sigma(3 2)=  0.00000000E+00
  sigma(2 2)= -1.90523665E-05  sigma(3 1)=  0.00000000E+00
  sigma(3 3)= -1.90523665E-05  sigma(2 1)=  0.00000000E+00

-Cartesian components of stress tensor (GPa)         [Pressure=  5.6054E-01 GPa]
- sigma(1 1)= -5.60539879E-01  sigma(3 2)=  0.00000000E+00
- sigma(2 2)= -5.60539879E-01  sigma(3 1)=  0.00000000E+00
- sigma(3 3)= -5.60539879E-01  sigma(2 1)=  0.00000000E+00

================================================================================
== DATASET  2 ==================================================================
-   nproc =    1

 mkfilename : getwfk/=0, take file _WFK from output of DATASET   1.

 Exchange-correlation functional for the present dataset will be:
  LDA: new Teter (4/93) with spin-polarized option - ixc=1
 Citation for XC functional:
  S. Goedecker, M. Teter, J. Huetter, PRB 54, 1703 (1996)

 Real(R)+Recip(G) space primitive vectors, cartesian coordinates (Bohr,Bohr^-1):
 R(1)=  0.0000000  5.0900000  5.0900000  G(1)= -0.0982318  0.0982318  0.0982318
 R(2)=  5.0900000  0.0000000  5.0900000  G(2)=  0.0982318 -0.0982318  0.0982318
 R(3)=  5.0900000  5.0900000  0.0000000  G(3)=  0.0982318  0.0982318 -0.0982318
 Unit cell volume ucvol=  2.6374446E+02 bohr^3
 Angles (23,13,12)=  6.00000000E+01  6.00000000E+01  6.00000000E+01 degrees

 getcut: wavevector=  0.0000  0.0000  0.0000  ngfft=  20  20  20
         ecut(hartree)=      8.000   => boxcut(ratio)=   2.18216
--------------------------------------------------------------------------------

-inwffil : will read wavefunctions from disk file tbase3_xo_DS1_WFK
- newkpt: read input wf with ikpt,npw=   1     293, make ikpt,npw=   1     293
- newkpt: read input wf with ikpt,npw=   2     281, make ikpt,npw=   2     281
- newkpt: read input wf with ikpt,npw=   3     289, make ikpt,npw=   3     289
- newkpt: read input wf with ikpt,npw=   4     283, make ikpt,npw=   4     283
- newkpt: read input wf with ikpt,npw=   5     290, make ikpt,npw=   5     290
- newkpt: read input wf with ikpt,npw=   6     280, make ikpt,npw=   6     280
- newkpt: read input wf with ikpt,npw=   7     282, make ikpt,npw=   7     282
- newkpt: read input wf with ikpt,npw=   8     283, make ikpt,npw=   8     283
- newkpt: read input wf with ikpt,npw=   9     289, make ikpt,npw=   9     289
- newkpt: read input wf with ikpt,npw=  10     281, make ikpt,npw=  10     281

_setup2: Arith. and geom. avg. npw (full set) are     284.719     284.689

================================================================================

     iter   Etot(hartree)      deltaE(h)  residm     vres2
 ETOT  1  -8.8724785001604    -8.872E+00 4.760E-05 1.236E-02
 ETOT  2  -8.8724909244419    -1.242E-05 6.423E-08 7.697E-05
 ETOT  3  -8.8724909734858    -4.904E-08 1.848E-08 1.011E-06
 ETOT  4  -8.8724909739119    -4.261E-10 4.748E-10 1.144E-08

 At SCF step    4, etot is converged : 
  for the second time, diff in etot=  4.261E-10 < toldfe=  1.000E-06

 Cartesian components of stress tensor (hartree/bohr^3)
  sigma(1 1)= -5.51936443E-06  sigma(3 2)=  0.00000000E+00
  sigma(2 2)= -5.51936443E-06  sigma(3 1)=  0.00000000E+00
  sigma(3 3)= -5.51936443E-06  sigma(2 1)=  0.00000000E+00

================================================================================

 ----iterations are completed or convergence reached----

 Mean square residual over all n,k,spin=   1.2414E-11; max=  4.7483E-10
  -0.1250 -0.2500  0.0000    1  4.85570E-12 kpt; spin; max resid(k); each band:
  3.80E-12 1.10E-12 2.07E-13 1.86E-12 4.86E-12
  -0.1250  0.5000  0.0000    1  9.30063E-12 kpt; spin; max resid(k); each band:
  1.06E-12 4.49E-12 2.13E-12 4.92E-14 9.30E-12
  -0.2500 -0.3750  0.0000    1  7.92951E-12 kpt; spin; max resid(k); each band:
  4.43E-12 5.90E-13 1.79E-12 9.95E-14 7.93E-12
  -0.1250 -0.3750  0.1250    1  4.74834E-10 kpt; spin; max resid(k); each band:
  3.05E-12 2.01E-12 3.78E-12 8.41E-13 4.75E-10
  -0.1250  0.2500  0.0000    1  3.12793E-11 kpt; spin; max resid(k); each band:
  2.41E-12 2.78E-12 1.80E-12 5.59E-14 3.13E-11
  -0.2500  0.3750  0.0000    1  3.44617E-12 kpt; spin; max resid(k); each band:
  5.36E-13 3.45E-12 1.71E-12 1.28E-13 3.16E-12
  -0.3750  0.5000  0.0000    1  5.86427E-12 kpt; spin; max resid(k); each band:
  2.57E-12 9.25E-13 6.05E-13 6.86E-14 5.86E-12
  -0.2500  0.5000  0.1250    1  8.10583E-12 kpt; spin; max resid(k); each band:
  1.07E-12 1.37E-12 1.15E-12 4.00E-12 8.11E-12
  -0.1250  0.0000  0.0000    1  2.52979E-12 kpt; spin; max resid(k); each band:
  2.02E-12 7.42E-13 8.10E-14 8.10E-14 2.53E-12
  -0.3750  0.0000  0.0000    1  6.24653E-12 kpt; spin; max resid(k); each band:
  2.69E-12 4.93E-12 5.36E-14 5.36E-14 6.25E-12
 reduced coordinates (array xred) for    2 atoms
       0.000000000000      0.000000000000      0.000000000000
       0.250000000000      0.250000000000      0.250000000000
 rms dE/dt=  0.0000E+00; max dE/dt=  0.0000E+00; dE/dt below (all hartree)
    1       0.000000000000      0.000000000000      0.000000000000
    2       0.000000000000      0.000000000000      0.000000000000

 cartesian coordinates (angstrom) at end:
    1      0.00000000000000     0.00000000000000     0.00000000000000
    2      1.34675599586155     1.34675599586155     1.34675599586155

 cartesian forces (hartree/bohr) at end:
    1     -0.00000000000000    -0.00000000000000    -0.00000000000000
    2     -0.00000000000000    -0.00000000000000    -0.00000000000000
 frms,max,avg= 0.0000000E+00 0.0000000E+00   0.000E+00  0.000E+00  0.000E+00 h/b

 cartesian forces (eV/Angstrom) at end:
    1     -0.00000000000000    -0.00000000000000    -0.00000000000000
    2     -0.00000000000000    -0.00000000000000    -0.00000000000000
 frms,max,avg= 0.0000000E+00 0.0000000E+00   0.000E+00  0.000E+00  0.000E+00 e/A
 length scales= 10.180000000000 10.180000000000 10.180000000000 bohr
              =  5.387023983446  5.387023983446  5.387023983446 angstroms
 prteigrs : about to open file tbase3_xo_DS2_EIG
 Fermi (or HOMO) energy (hartree) =   0.21043   Average Vxc (hartree)=  -0.35602
 Eigenvalues (hartree) for nkpt=  10  k points:
 kpt#   1, nband=  5, wtk=  0.09375, kpt= -0.1250 -0.2500  0.0000 (reduced coord)
  -0.19749   0.10127   0.17126   0.17438   0.29814
 kpt#   2, nband=  5, wtk=  0.09375, kpt= -0.1250  0.5000  0.0000 (reduced coord)
  -0.13379  -0.03168   0.13530   0.16234   0.30027
 kpt#   3, nband=  5, wtk=  0.09375, kpt= -0.2500 -0.3750  0.0000 (reduced coord)
  -0.15791   0.03816   0.11991   0.13772   0.26748
 kpt#   4, nband=  5, wtk=  0.18750, kpt= -0.1250 -0.3750  0.1250 (reduced coord)
  -0.14171   0.00365   0.09545   0.14807   0.32537
 kpt#   5, nband=  5, wtk=  0.09375, kpt= -0.1250  0.2500  0.0000 (reduced coord)
  -0.17828   0.04859   0.13366   0.19222   0.32054
 kpt#   6, nband=  5, wtk=  0.09375, kpt= -0.2500  0.3750  0.0000 (reduced coord)
  -0.11486  -0.02640   0.06978   0.15000   0.28591
 kpt#   7, nband=  5, wtk=  0.09375, kpt= -0.3750  0.5000  0.0000 (reduced coord)
  -0.10138  -0.03225   0.09073   0.11989   0.24974
 kpt#   8, nband=  5, wtk=  0.18750, kpt= -0.2500  0.5000  0.1250 (reduced coord)
  -0.09441  -0.03628   0.06681   0.10872   0.30639
 kpt#   9, nband=  5, wtk=  0.03125, kpt= -0.1250  0.0000  0.0000 (reduced coord)
  -0.21773   0.16157   0.21043   0.21043   0.31240
 kpt#  10, nband=  5, wtk=  0.03125, kpt= -0.3750  0.0000  0.0000 (reduced coord)
  -0.16141  -0.00156   0.18037   0.18037   0.28156
 Total charge density [el/Bohr^3]
,     Maximum=    8.6571E-02  at reduced coord.    0.1000    0.1000    0.7000
,Next maximum=    8.6571E-02  at reduced coord.    0.1500    0.1500    0.5500
,     Minimum=    3.6020E-03  at reduced coord.    0.5000    0.5000    0.5000
,Next minimum=    3.6020E-03  at reduced coord.    0.7500    0.7500    0.7500
,  Integrated=    8.0000E+00

--------------------------------------------------------------------------------
 Components of total free energy (in Hartree) :

    Kinetic energy  =  3.03959673674785E+00
    Hartree energy  =  5.33348198038281E-01
    XC energy       = -3.54529841726675E+00
    Ewald energy    = -8.46648022654903E+00
    PspCore energy  =  8.69853998680376E-02
    Loc. psp. energy= -2.40809116125163E+00
    NL   psp  energy=  1.88744849650131E+00
    >>>>>>>>> Etotal= -8.87249097391193E+00

 Other information on the energy :
    Total energy(eV)= -2.41432757685503E+02 ; Band energy (Ha)=   2.5486226737E-01
--------------------------------------------------------------------------------

 Cartesian components of stress tensor (hartree/bohr^3)
  sigma(1 1)= -5.51936443E-06  sigma(3 2)=  0.00000000E+00
  sigma(2 2)= -5.51936443E-06  sigma(3 1)=  0.00000000E+00
  sigma(3 3)= -5.51936443E-06  sigma(2 1)=  0.00000000E+00

-Cartesian components of stress tensor (GPa)         [Pressure=  1.6239E-01 GPa]
- sigma(1 1)= -1.62385280E-01  sigma(3 2)=  0.00000000E+00
- sigma(2 2)= -1.62385280E-01  sigma(3 1)=  0.00000000E+00
- sigma(3 3)= -1.62385280E-01  sigma(2 1)=  0.00000000E+00

================================================================================
== DATASET  3 ==================================================================
-   nproc =    1

 mkfilename : getwfk/=0, take file _WFK from output of DATASET   2.

 Exchange-correlation functional for the present dataset will be:
  LDA: new Teter (4/93) with spin-polarized option - ixc=1
 Citation for XC functional:
  S. Goedecker, M. Teter, J. Huetter, PRB 54, 1703 (1996)

 Real(R)+Recip(G) space primitive vectors, cartesian coordinates (Bohr,Bohr^-1):
 R(1)=  0.0000000  5.0900000  5.0900000  G(1)= -0.0982318  0.0982318  0.0982318
 R(2)=  5.0900000  0.0000000  5.0900000  G(2)=  0.0982318 -0.0982318  0.0982318
 R(3)=  5.0900000  5.0900000  0.0000000  G(3)=  0.0982318  0.0982318 -0.0982318
 Unit cell volume ucvol=  2.6374446E+02 bohr^3
 Angles (23,13,12)=  6.00000000E+01  6.00000000E+01  6.00000000E+01 degrees

 getcut: wavevector=  0.0000  0.0000  0.0000  ngfft=  20  20  20
         ecut(hartree)=      8.000   => boxcut(ratio)=   2.18216
--------------------------------------------------------------------------------

-inwffil : will read wavefunctions from disk file tbase3_xo_DS2_WFK
- newkpt: read input wf with ikpt,npw=   1     293, make ikpt,npw=   1     293
- newkpt: read input wf with ikpt,npw=   2     293, make ikpt,npw=   2     293
- newkpt: read input wf with ikpt,npw=   3     295, make ikpt,npw=   3     295
- newkpt: read input wf with ikpt,npw=   4     290, make ikpt,npw=   4     290
- newkpt: read input wf with ikpt,npw=   5     280, make ikpt,npw=   5     280
- newkpt: read input wf with ikpt,npw=   6     282, make ikpt,npw=   6     282
- newkpt: read input wf with ikpt,npw=   7     281, make ikpt,npw=   7     281
- newkpt: read input wf with ikpt,npw=   8     294, make ikpt,npw=   8     294
- newkpt: read input wf with ikpt,npw=   9     285, make ikpt,npw=   9     285
- newkpt: read input wf with ikpt,npw=  10     284, make ikpt,npw=  10     284
- newkpt: read input wf with ikpt,npw=  11     287, make ikpt,npw=  11     287
- newkpt: read input wf with ikpt,npw=  12     287, make ikpt,npw=  12     287
- newkpt: read input wf with ikpt,npw=  13     283, make ikpt,npw=  13     283
- newkpt: read input wf with ikpt,npw=  14     284, make ikpt,npw=  14     284
- newkpt: read input wf with ikpt,npw=  15     285, make ikpt,npw=  15     285
- newkpt: read input wf with ikpt,npw=  16     287, make ikpt,npw=  16     287
- newkpt: read input wf with ikpt,npw=  17     283, make ikpt,npw=  17     283
- newkpt: read input wf with ikpt,npw=  18     278, make ikpt,npw=  18     278
- newkpt: read input wf with ikpt,npw=  19     288, make ikpt,npw=  19     288
- newkpt: read input wf with ikpt,npw=  20     285, make ikpt,npw=  20     285
- newkpt: read input wf with ikpt,npw=  21     280, make ikpt,npw=  21     280
- newkpt: read input wf with ikpt,npw=  22     282, make ikpt,npw=  22     282
- newkpt: read input wf with ikpt,npw=  23     285, make ikpt,npw=  23     285
- newkpt: read input wf with ikpt,npw=  24     284, make ikpt,npw=  24     284
- newkpt: read input wf with ikpt,npw=  25     279, make ikpt,npw=  25     279
- newkpt: read input wf with ikpt,npw=  26     286, make ikpt,npw=  26     286
- newkpt: read input wf with ikpt,npw=  27     289, make ikpt,npw=  27     289
- newkpt: read input wf with ikpt,npw=  28     281, make ikpt,npw=  28     281

_setup2: Arith. and geom. avg. npw (full set) are     284.843     284.810

================================================================================

     iter   Etot(hartree)      deltaE(h)  residm     vres2
 ETOT  1  -8.8725469380581    -8.873E+00 5.156E-03 6.750E-02
 ETOT  2  -8.8726013012559    -5.436E-05 1.762E-06 7.610E-04
 ETOT  3  -8.8726017372363    -4.360E-07 4.361E-08 1.596E-05
 ETOT  4  -8.8726017431750    -5.939E-09 7.556E-09 3.099E-08

 At SCF step    4, etot is converged : 
  for the second time, diff in etot=  5.939E-09 < toldfe=  1.000E-06

 Cartesian components of stress tensor (hartree/bohr^3)
  sigma(1 1)= -5.61311209E-06  sigma(3 2)=  0.00000000E+00
  sigma(2 2)= -5.61311209E-06  sigma(3 1)=  0.00000000E+00
  sigma(3 3)= -5.61311209E-06  sigma(2 1)=  0.00000000E+00

================================================================================

 ----iterations are completed or convergence reached----

 Mean square residual over all n,k,spin=   1.5208E-10; max=  7.5556E-09
  -0.0833 -0.1667  0.0000    1  5.49976E-11 kpt; spin; max resid(k); each band:
  4.84E-11 6.97E-12 6.01E-13 1.27E-11 5.50E-11
  -0.0833 -0.3333  0.0000    1  1.16461E-09 kpt; spin; max resid(k); each band:
  6.48E-11 5.37E-11 5.49E-13 3.82E-11 1.16E-09
  -0.1667 -0.2500  0.0000    1  9.17062E-11 kpt; spin; max resid(k); each band:
  7.50E-11 9.30E-12 2.64E-11 1.52E-12 9.17E-11
  -0.0833 -0.2500  0.0833    1  1.54052E-10 kpt; spin; max resid(k); each band:
  6.73E-11 2.10E-11 5.05E-11 4.51E-12 1.54E-10
  -0.0833  0.5000  0.0000    1  1.82199E-10 kpt; spin; max resid(k); each band:
  1.00E-11 1.12E-10 3.54E-11 4.99E-13 1.82E-10
  -0.1667 -0.4167  0.0000    1  8.71940E-11 kpt; spin; max resid(k); each band:
  5.75E-11 4.41E-11 3.88E-11 2.07E-12 8.72E-11
  -0.0833 -0.4167  0.0833    1  3.24305E-09 kpt; spin; max resid(k); each band:
  3.46E-11 8.36E-11 5.41E-11 3.06E-12 3.24E-09
  -0.2500 -0.3333  0.0000    1  1.12331E-10 kpt; spin; max resid(k); each band:
  8.37E-11 3.76E-12 2.73E-11 8.50E-13 1.12E-10
  -0.1667 -0.3333  0.0833    1  1.50467E-10 kpt; spin; max resid(k); each band:
  7.18E-11 1.60E-11 6.11E-11 6.02E-12 1.50E-10
  -0.0833 -0.3333  0.1667    1  7.55560E-09 kpt; spin; max resid(k); each band:
  2.35E-11 4.60E-11 3.43E-11 2.32E-11 7.56E-09
  -0.0833  0.3333  0.0000    1  1.50521E-10 kpt; spin; max resid(k); each band:
  4.60E-11 8.19E-11 3.10E-11 5.01E-13 1.51E-10
  -0.1667  0.4167  0.0000    1  1.36313E-10 kpt; spin; max resid(k); each band:
  8.48E-12 8.22E-11 3.95E-11 4.27E-13 1.36E-10
  -0.2500  0.5000  0.0000    1  6.44790E-11 kpt; spin; max resid(k); each band:
  4.17E-11 4.55E-11 3.22E-11 1.08E-12 6.45E-11
  -0.1667  0.5000  0.0833    1  2.36885E-10 kpt; spin; max resid(k); each band:
  1.96E-11 6.41E-11 4.25E-11 2.75E-11 2.37E-10
  -0.3333 -0.4167  0.0000    1  1.38681E-10 kpt; spin; max resid(k); each band:
  7.72E-11 3.03E-12 2.15E-11 1.11E-12 1.39E-10
  -0.2500 -0.4167  0.0833    1  1.93628E-10 kpt; spin; max resid(k); each band:
  5.94E-11 1.25E-11 3.70E-11 2.58E-11 1.94E-10
  -0.1667 -0.4167  0.1667    1  2.50877E-09 kpt; spin; max resid(k); each band:
  3.79E-11 1.56E-11 6.29E-11 4.78E-11 2.51E-09
  -0.0833 -0.4167  0.2500    1  9.69316E-11 kpt; spin; max resid(k); each band:
  8.35E-12 4.85E-11 1.84E-11 4.41E-11 9.69E-11
  -0.0833  0.1667  0.0000    1  4.09064E-10 kpt; spin; max resid(k); each band:
  4.75E-11 2.25E-11 2.30E-11 5.09E-13 4.09E-10
  -0.1667  0.2500  0.0000    1  1.71204E-10 kpt; spin; max resid(k); each band:
  2.87E-11 4.27E-11 2.88E-11 8.12E-13 1.71E-10
  -0.2500  0.3333  0.0000    1  5.82427E-11 kpt; spin; max resid(k); each band:
  1.70E-11 5.54E-11 2.88E-11 1.19E-12 5.82E-11
  -0.3333  0.4167  0.0000    1  5.32471E-11 kpt; spin; max resid(k); each band:
  1.36E-11 4.43E-11 1.04E-11 7.36E-13 5.32E-11
  -0.4167  0.5000  0.0000    1  2.13454E-10 kpt; spin; max resid(k); each band:
  4.64E-11 1.47E-11 1.04E-11 9.43E-13 2.13E-10
  -0.3333  0.5000  0.0833    1  1.54591E-10 kpt; spin; max resid(k); each band:
  2.98E-11 1.98E-11 9.02E-12 5.09E-11 1.55E-10
  -0.2500  0.5000  0.1667    1  2.56722E-10 kpt; spin; max resid(k); each band:
  1.29E-11 1.66E-11 1.97E-11 9.30E-11 2.57E-10
  -0.0833  0.0000  0.0000    1  3.76676E-11 kpt; spin; max resid(k); each band:
  2.21E-11 5.26E-12 8.90E-13 8.90E-13 3.77E-11
  -0.2500  0.0000  0.0000    1  9.00208E-11 kpt; spin; max resid(k); each band:
  6.06E-11 4.63E-11 6.65E-13 6.65E-13 9.00E-11
  -0.4167  0.0000  0.0000    1  1.19653E-10 kpt; spin; max resid(k); each band:
  3.19E-11 1.04E-10 3.43E-13 3.43E-13 1.20E-10
 reduced coordinates (array xred) for    2 atoms
       0.000000000000      0.000000000000      0.000000000000
       0.250000000000      0.250000000000      0.250000000000
 rms dE/dt=  0.0000E+00; max dE/dt=  0.0000E+00; dE/dt below (all hartree)
    1       0.000000000000      0.000000000000      0.000000000000
    2       0.000000000000      0.000000000000      0.000000000000

 cartesian coordinates (angstrom) at end:
    1      0.00000000000000     0.00000000000000     0.00000000000000
    2      1.34675599586155     1.34675599586155     1.34675599586155

 cartesian forces (hartree/bohr) at end:
    1     -0.00000000000000    -0.00000000000000    -0.00000000000000
    2     -0.00000000000000    -0.00000000000000    -0.00000000000000
 frms,max,avg= 0.0000000E+00 0.0000000E+00   0.000E+00  0.000E+00  0.000E+00 h/b

 cartesian forces (eV/Angstrom) at end:
    1     -0.00000000000000    -0.00000000000000    -0.00000000000000
    2     -0.00000000000000    -0.00000000000000    -0.00000000000000
 frms,max,avg= 0.0000000E+00 0.0000000E+00   0.000E+00  0.000E+00  0.000E+00 e/A
 length scales= 10.180000000000 10.180000000000 10.180000000000 bohr
              =  5.387023983446  5.387023983446  5.387023983446 angstroms
 prteigrs : about to open file tbase3_xo_DS3_EIG
 Fermi (or HOMO) energy (hartree) =   0.21592   Average Vxc (hartree)=  -0.35603
 Eigenvalues (hartree) for nkpt=  28  k points:
 kpt#   1, nband=  5, wtk=  0.02778, kpt= -0.0833 -0.1667  0.0000 (reduced coord)
  -0.21294   0.14951   0.19109   0.19857   0.30452
 kpt#   2, nband=  5, wtk=  0.02778, kpt= -0.0833 -0.3333  0.0000 (reduced coord)
  -0.17822   0.03923   0.17141   0.17300   0.30450
 kpt#   3, nband=  5, wtk=  0.02778, kpt= -0.1667 -0.2500  0.0000 (reduced coord)
  -0.19491   0.10543   0.16295   0.16331   0.28190
 kpt#   4, nband=  5, wtk=  0.05556, kpt= -0.0833 -0.2500  0.0833 (reduced coord)
  -0.18636   0.07349   0.13897   0.18426   0.31601
 kpt#   5, nband=  5, wtk=  0.02778, kpt= -0.0833  0.5000  0.0000 (reduced coord)
  -0.13560  -0.03640   0.15412   0.16942   0.29572
 kpt#   6, nband=  5, wtk=  0.02778, kpt= -0.1667 -0.4167  0.0000 (reduced coord)
  -0.15347   0.00949   0.12941   0.15204   0.29258
 kpt#   7, nband=  5, wtk=  0.05556, kpt= -0.0833 -0.4167  0.0833 (reduced coord)
  -0.14094  -0.01681   0.12452   0.16243   0.31614
 kpt#   8, nband=  5, wtk=  0.02778, kpt= -0.2500 -0.3333  0.0000 (reduced coord)
  -0.16828   0.05742   0.13188   0.14033   0.26237
 kpt#   9, nband=  5, wtk=  0.05556, kpt= -0.1667 -0.3333  0.0833 (reduced coord)
  -0.16043   0.03664   0.11245   0.14863   0.29686
 kpt#  10, nband=  5, wtk=  0.05556, kpt= -0.0833 -0.3333  0.1667 (reduced coord)
  -0.14538   0.01026   0.08790   0.15855   0.32950
 kpt#  11, nband=  5, wtk=  0.02778, kpt= -0.0833  0.3333  0.0000 (reduced coord)
  -0.16254   0.00724   0.15135   0.18389   0.30176
 kpt#  12, nband=  5, wtk=  0.02778, kpt= -0.1667  0.4167  0.0000 (reduced coord)
  -0.12675  -0.03215   0.10822   0.16112   0.29942
 kpt#  13, nband=  5, wtk=  0.02778, kpt= -0.2500  0.5000  0.0000 (reduced coord)
  -0.12280  -0.01649   0.08721   0.13790   0.27355
 kpt#  14, nband=  5, wtk=  0.05556, kpt= -0.1667  0.5000  0.0833 (reduced coord)
  -0.11766  -0.03033   0.09001   0.13987   0.30606
 kpt#  15, nband=  5, wtk=  0.02778, kpt= -0.3333 -0.4167  0.0000 (reduced coord)
  -0.13359   0.00642   0.11109   0.12446   0.24980
 kpt#  16, nband=  5, wtk=  0.05556, kpt= -0.2500 -0.4167  0.0833 (reduced coord)
  -0.12710  -0.00214   0.09101   0.12147   0.28147
 kpt#  17, nband=  5, wtk=  0.05556, kpt= -0.1667 -0.4167  0.1667 (reduced coord)
  -0.11541  -0.01715   0.07245   0.12111   0.33812
 kpt#  18, nband=  5, wtk=  0.05556, kpt= -0.0833 -0.4167  0.2500 (reduced coord)
  -0.10181  -0.03206   0.06013   0.12934   0.29697
 kpt#  19, nband=  5, wtk=  0.02778, kpt= -0.0833  0.1667  0.0000 (reduced coord)
  -0.20400   0.11150   0.16853   0.20812   0.32055
 kpt#  20, nband=  5, wtk=  0.02778, kpt= -0.1667  0.2500  0.0000 (reduced coord)
  -0.16958   0.04018   0.11105   0.18627   0.32258
 kpt#  21, nband=  5, wtk=  0.02778, kpt= -0.2500  0.3333  0.0000 (reduced coord)
  -0.12469  -0.01353   0.06875   0.15627   0.29272
 kpt#  22, nband=  5, wtk=  0.02778, kpt= -0.3333  0.4167  0.0000 (reduced coord)
  -0.09178  -0.04112   0.06096   0.13052   0.26277
 kpt#  23, nband=  5, wtk=  0.02778, kpt= -0.4167  0.5000  0.0000 (reduced coord)
  -0.09186  -0.04433   0.10085   0.11632   0.24504
 kpt#  24, nband=  5, wtk=  0.05556, kpt= -0.3333  0.5000  0.0833 (reduced coord)
  -0.08819  -0.04393   0.07849   0.10853   0.27328
 kpt#  25, nband=  5, wtk=  0.05556, kpt= -0.2500  0.5000  0.1667 (reduced coord)
  -0.08386  -0.04422   0.06577   0.09548   0.33034
 kpt#  26, nband=  5, wtk=  0.00926, kpt= -0.0833  0.0000  0.0000 (reduced coord)
  -0.22205   0.18919   0.21592   0.21592   0.31642
 kpt#  27, nband=  5, wtk=  0.00926, kpt= -0.2500  0.0000  0.0000 (reduced coord)
  -0.19530   0.07429   0.19259   0.19259   0.29477
 kpt#  28, nband=  5, wtk=  0.00926, kpt= -0.4167  0.0000  0.0000 (reduced coord)
  -0.14985  -0.02116   0.17802   0.17802   0.27894
 Total charge density [el/Bohr^3]
,     Maximum=    8.6538E-02  at reduced coord.    0.1000    0.1000    0.7000
,Next maximum=    8.6538E-02  at reduced coord.    0.1500    0.1500    0.5500
,     Minimum=    3.6160E-03  at reduced coord.    0.5000    0.5000    0.5000
,Next minimum=    3.6160E-03  at reduced coord.    0.7500    0.7500    0.7500
,  Integrated=    8.0000E+00

--------------------------------------------------------------------------------
 Components of total free energy (in Hartree) :

    Kinetic energy  =  3.03899214470533E+00
    Hartree energy  =  5.33045719242079E-01
    XC energy       = -3.54518067080206E+00
    Ewald energy    = -8.46648022654903E+00
    PspCore energy  =  8.69853998680376E-02
    Loc. psp. energy= -2.40779021252892E+00
    NL   psp  energy=  1.88782610288955E+00
    >>>>>>>>> Etotal= -8.87260174317501E+00

 Other information on the energy :
    Total energy(eV)= -2.41435771870440E+02 ; Band energy (Ha)=   2.5447228305E-01
--------------------------------------------------------------------------------

 Cartesian components of stress tensor (hartree/bohr^3)
  sigma(1 1)= -5.61311209E-06  sigma(3 2)=  0.00000000E+00
  sigma(2 2)= -5.61311209E-06  sigma(3 1)=  0.00000000E+00
  sigma(3 3)= -5.61311209E-06  sigma(2 1)=  0.00000000E+00

-Cartesian components of stress tensor (GPa)         [Pressure=  1.6514E-01 GPa]
- sigma(1 1)= -1.65143432E-01  sigma(3 2)=  0.00000000E+00
- sigma(2 2)= -1.65143432E-01  sigma(3 1)=  0.00000000E+00
- sigma(3 3)= -1.65143432E-01  sigma(2 1)=  0.00000000E+00

================================================================================
== DATASET  4 ==================================================================
-   nproc =    1

 mkfilename : getwfk/=0, take file _WFK from output of DATASET   3.

 Exchange-correlation functional for the present dataset will be:
  LDA: new Teter (4/93) with spin-polarized option - ixc=1
 Citation for XC functional:
  S. Goedecker, M. Teter, J. Huetter, PRB 54, 1703 (1996)

 Real(R)+Recip(G) space primitive vectors, cartesian coordinates (Bohr,Bohr^-1):
 R(1)=  0.0000000  5.0900000  5.0900000  G(1)= -0.0982318  0.0982318  0.0982318
 R(2)=  5.0900000  0.0000000  5.0900000  G(2)=  0.0982318 -0.0982318  0.0982318
 R(3)=  5.0900000  5.0900000  0.0000000  G(3)=  0.0982318  0.0982318 -0.0982318
 Unit cell volume ucvol=  2.6374446E+02 bohr^3
 Angles (23,13,12)=  6.00000000E+01  6.00000000E+01  6.00000000E+01 degrees

 getcut: wavevector=  0.0000  0.0000  0.0000  ngfft=  20  20  20
         ecut(hartree)=      8.000   => boxcut(ratio)=   2.18216
--------------------------------------------------------------------------------

-inwffil : will read wavefunctions from disk file tbase3_xo_DS3_WFK
- newkpt: read input wf with ikpt,npw=   1     290, make ikpt,npw=   1     290
- newkpt: read input wf with ikpt,npw=   2     290, make ikpt,npw=   2     290
- newkpt: read input wf with ikpt,npw=   3     293, make ikpt,npw=   3     293
- newkpt: read input wf with ikpt,npw=   4     291, make ikpt,npw=   4     291
- newkpt: read input wf with ikpt,npw=   5     286, make ikpt,npw=   5     286
- newkpt: read input wf with ikpt,npw=   6     292, make ikpt,npw=   6     292
- newkpt: read input wf with ikpt,npw=   7     290, make ikpt,npw=   7     290
- newkpt: read input wf with ikpt,npw=   8     297, make ikpt,npw=   8     297
- newkpt: read input wf with ikpt,npw=   9     291, make ikpt,npw=   9     291
- newkpt: read input wf with ikpt,npw=  10     288, make ikpt,npw=  10     288
- newkpt: read input wf with ikpt,npw=  11     278, make ikpt,npw=  11     278
- newkpt: read input wf with ikpt,npw=  12     282, make ikpt,npw=  12     282
- newkpt: read input wf with ikpt,npw=  13     280, make ikpt,npw=  13     280
- newkpt: read input wf with ikpt,npw=  14     289, make ikpt,npw=  14     289
- newkpt: read input wf with ikpt,npw=  15     283, make ikpt,npw=  15     283
- newkpt: read input wf with ikpt,npw=  16     284, make ikpt,npw=  16     284
- newkpt: read input wf with ikpt,npw=  17     296, make ikpt,npw=  17     296
- newkpt: read input wf with ikpt,npw=  18     289, make ikpt,npw=  18     289
- newkpt: read input wf with ikpt,npw=  19     285, make ikpt,npw=  19     285
- newkpt: read input wf with ikpt,npw=  20     283, make ikpt,npw=  20     283
- newkpt: read input wf with ikpt,npw=  21     281, make ikpt,npw=  21     281
- newkpt: read input wf with ikpt,npw=  22     283, make ikpt,npw=  22     283
- newkpt: read input wf with ikpt,npw=  23     281, make ikpt,npw=  23     281
- newkpt: read input wf with ikpt,npw=  24     281, make ikpt,npw=  24     281
- newkpt: read input wf with ikpt,npw=  25     285, make ikpt,npw=  25     285
- newkpt: read input wf with ikpt,npw=  26     285, make ikpt,npw=  26     285
- newkpt: read input wf with ikpt,npw=  27     284, make ikpt,npw=  27     284
- newkpt: read input wf with ikpt,npw=  28     282, make ikpt,npw=  28     282
- newkpt: read input wf with ikpt,npw=  29     288, make ikpt,npw=  29     288
- newkpt: read input wf with ikpt,npw=  30     287, make ikpt,npw=  30     287
- newkpt: read input wf with ikpt,npw=  31     285, make ikpt,npw=  31     285
- newkpt: read input wf with ikpt,npw=  32     284, make ikpt,npw=  32     284
- newkpt: read input wf with ikpt,npw=  33     281, make ikpt,npw=  33     281
- newkpt: read input wf with ikpt,npw=  34     293, make ikpt,npw=  34     293
- newkpt: read input wf with ikpt,npw=  35     285, make ikpt,npw=  35     285
- newkpt: read input wf with ikpt,npw=  36     284, make ikpt,npw=  36     284
- newkpt: read input wf with ikpt,npw=  37     282, make ikpt,npw=  37     282
- newkpt: read input wf with ikpt,npw=  38     282, make ikpt,npw=  38     282
- newkpt: read input wf with ikpt,npw=  39     286, make ikpt,npw=  39     286
- newkpt: read input wf with ikpt,npw=  40     281, make ikpt,npw=  40     281
- newkpt: read input wf with ikpt,npw=  41     285, make ikpt,npw=  41     285
- newkpt: read input wf with ikpt,npw=  42     287, make ikpt,npw=  42     287
- newkpt: read input wf with ikpt,npw=  43     284, make ikpt,npw=  43     284
- newkpt: read input wf with ikpt,npw=  44     279, make ikpt,npw=  44     279
- newkpt: read input wf with ikpt,npw=  45     280, make ikpt,npw=  45     280
- newkpt: read input wf with ikpt,npw=  46     280, make ikpt,npw=  46     280
- newkpt: read input wf with ikpt,npw=  47     290, make ikpt,npw=  47     290
- newkpt: read input wf with ikpt,npw=  48     290, make ikpt,npw=  48     290
- newkpt: read input wf with ikpt,npw=  49     285, make ikpt,npw=  49     285
- newkpt: read input wf with ikpt,npw=  50     281, make ikpt,npw=  50     281
- newkpt : prtvol=0 or 1, do not print more k-points.

_setup2: Arith. and geom. avg. npw (full set) are     284.918     284.888

================================================================================

     iter   Etot(hartree)      deltaE(h)  residm     vres2
 ETOT  1  -8.8726055967611    -8.873E+00 4.788E-04 1.638E-05
 ETOT  2  -8.8726056404610    -4.370E-08 8.288E-06 9.894E-08
 ETOT  3  -8.8726056405198    -5.882E-11 1.960E-06 6.217E-10

 At SCF step    3, etot is converged : 
  for the second time, diff in etot=  5.882E-11 < toldfe=  1.000E-06

 Cartesian components of stress tensor (hartree/bohr^3)
  sigma(1 1)= -5.68250558E-06  sigma(3 2)=  0.00000000E+00
  sigma(2 2)= -5.68250558E-06  sigma(3 1)=  0.00000000E+00
  sigma(3 3)= -5.68250558E-06  sigma(2 1)=  0.00000000E+00

================================================================================

 ----iterations are completed or convergence reached----

 Mean square residual over all n,k,spin=   1.0844E-08; max=  1.9602E-06
  -0.0625 -0.1250  0.0000    1  2.68934E-10 kpt; spin; max resid(k); each band:
  2.18E-13 7.63E-14 3.39E-14 1.46E-13 2.69E-10
  -0.0625 -0.2500  0.0000    1  7.56526E-12 kpt; spin; max resid(k); each band:
  4.22E-13 4.02E-13 1.92E-14 2.91E-13 7.57E-12
  -0.1250 -0.1875  0.0000    1  6.38754E-13 kpt; spin; max resid(k); each band:
  3.97E-13 6.82E-14 1.89E-14 1.65E-13 6.39E-13
  -0.0625 -0.1875  0.0625    1  6.95173E-08 kpt; spin; max resid(k); each band:
  3.82E-13 1.23E-13 2.84E-13 8.63E-14 6.95E-08
  -0.0625 -0.3750  0.0000    1  3.69945E-11 kpt; spin; max resid(k); each band:
  3.72E-13 7.11E-13 1.34E-14 2.39E-13 3.70E-11
  -0.1250 -0.3125  0.0000    1  3.02126E-12 kpt; spin; max resid(k); each band:
  4.67E-13 2.79E-13 3.73E-13 1.39E-14 3.02E-12
  -0.0625 -0.3125  0.0625    1  2.73007E-10 kpt; spin; max resid(k); each band:
  4.16E-13 5.35E-13 2.94E-13 8.23E-14 2.73E-10
  -0.1875 -0.2500  0.0000    1  5.71886E-13 kpt; spin; max resid(k); each band:
  5.20E-13 4.66E-14 1.59E-13 1.29E-14 5.72E-13
  -0.1250 -0.2500  0.0625    1  7.38874E-13 kpt; spin; max resid(k); each band:
  4.92E-13 1.13E-13 3.25E-13 7.18E-14 7.39E-13
  -0.0625 -0.2500  0.1250    1  1.10270E-06 kpt; spin; max resid(k); each band:
  4.03E-13 2.26E-13 3.85E-13 5.72E-14 1.10E-06
  -0.0625  0.5000  0.0000    1  1.39471E-12 kpt; spin; max resid(k); each band:
  6.42E-14 9.79E-13 2.04E-13 7.16E-15 1.39E-12
  -0.1250 -0.4375  0.0000    1  1.02053E-11 kpt; spin; max resid(k); each band:
  3.32E-13 5.19E-13 2.90E-13 1.15E-14 1.02E-11
  -0.0625 -0.4375  0.0625    1  7.71989E-10 kpt; spin; max resid(k); each band:
  1.74E-13 8.59E-13 3.08E-13 2.73E-14 7.72E-10
  -0.1875 -0.3750  0.0000    1  6.62030E-13 kpt; spin; max resid(k); each band:
  4.78E-13 2.56E-13 2.92E-13 1.09E-14 6.62E-13
  -0.1250 -0.3750  0.0625    1  9.03492E-13 kpt; spin; max resid(k); each band:
  4.09E-13 3.54E-13 3.38E-13 5.73E-14 9.03E-13
  -0.0625 -0.3750  0.1250    1  3.67776E-08 kpt; spin; max resid(k); each band:
  1.73E-13 6.85E-13 2.58E-13 1.12E-13 3.68E-08
  -0.2500 -0.3125  0.0000    1  6.35226E-13 kpt; spin; max resid(k); each band:
  5.83E-13 2.27E-14 1.34E-13 9.97E-15 6.35E-13
  -0.1875 -0.3125  0.0625    1  9.08726E-13 kpt; spin; max resid(k); each band:
  5.44E-13 8.67E-14 3.26E-13 4.65E-14 9.09E-13
  -0.1250 -0.3125  0.1250    1  2.19320E-12 kpt; spin; max resid(k); each band:
  4.76E-13 1.29E-13 4.70E-13 7.62E-14 2.19E-12
  -0.0625 -0.3125  0.1875    1  3.65957E-12 kpt; spin; max resid(k); each band:
  1.76E-13 4.43E-13 1.97E-13 1.87E-13 3.66E-12
  -0.0625  0.3750  0.0000    1  1.32537E-12 kpt; spin; max resid(k); each band:
  2.70E-13 8.36E-13 1.83E-13 3.13E-15 1.33E-12
  -0.1250  0.4375  0.0000    1  2.55414E-12 kpt; spin; max resid(k); each band:
  5.75E-14 8.12E-13 2.47E-13 8.77E-15 2.55E-12
  -0.1875  0.5000  0.0000    1  5.59616E-13 kpt; spin; max resid(k); each band:
  2.51E-13 4.79E-13 2.64E-13 9.86E-15 5.60E-13
  -0.1250  0.5000  0.0625    1  1.85221E-10 kpt; spin; max resid(k); each band:
  1.23E-13 6.16E-13 2.89E-13 1.01E-13 1.85E-10
  -0.2500 -0.4375  0.0000    1  5.82751E-13 kpt; spin; max resid(k); each band:
  4.45E-13 2.52E-13 1.93E-13 8.64E-15 5.83E-13
  -0.1875 -0.4375  0.0625    1  6.17412E-13 kpt; spin; max resid(k); each band:
  3.56E-13 3.35E-13 2.66E-13 1.27E-13 6.17E-13
  -0.1250 -0.4375  0.1250    1  7.04782E-12 kpt; spin; max resid(k); each band:
  2.42E-13 4.10E-13 3.75E-13 2.28E-13 7.05E-12
  -0.0625 -0.4375  0.1875    1  5.92716E-13 kpt; spin; max resid(k); each band:
  9.09E-14 5.93E-13 2.54E-13 1.81E-13 5.91E-13
  -0.3125 -0.3750  0.0000    1  8.16909E-13 kpt; spin; max resid(k); each band:
  5.94E-13 1.24E-14 1.11E-13 7.66E-15 8.17E-13
  -0.2500 -0.3750  0.0625    1  1.86639E-12 kpt; spin; max resid(k); each band:
  5.39E-13 5.47E-14 2.57E-13 6.34E-14 1.87E-12
  -0.1875 -0.3750  0.1250    1  1.01914E-11 kpt; spin; max resid(k); each band:
  4.50E-13 1.00E-13 4.03E-13 1.45E-13 1.02E-11
  -0.1250 -0.3750  0.1875    1  1.96015E-06 kpt; spin; max resid(k); each band:
  1.47E-13 3.47E-13 1.67E-13 5.55E-13 1.96E-06
  -0.0625 -0.3750  0.2500    1  5.71512E-13 kpt; spin; max resid(k); each band:
  1.02E-13 4.54E-13 1.32E-13 2.05E-13 5.72E-13
  -0.0625  0.2500  0.0000    1  8.75405E-13 kpt; spin; max resid(k); each band:
  3.93E-13 5.54E-13 1.72E-13 8.84E-15 8.75E-13
  -0.1250  0.3125  0.0000    1  6.35176E-12 kpt; spin; max resid(k); each band:
  2.46E-13 6.82E-13 2.27E-13 5.66E-15 6.35E-12
  -0.1875  0.3750  0.0000    1  6.49692E-13 kpt; spin; max resid(k); each band:
  1.10E-13 6.50E-13 2.59E-13 8.48E-15 5.10E-13
  -0.2500  0.4375  0.0000    1  5.25852E-13 kpt; spin; max resid(k); each band:
  1.45E-13 5.26E-13 2.18E-13 8.29E-15 4.46E-13
  -0.3125  0.5000  0.0000    1  5.10678E-13 kpt; spin; max resid(k); each band:
  3.59E-13 2.30E-13 9.33E-14 7.08E-15 5.11E-13
  -0.2500  0.5000  0.0625    1  5.73601E-13 kpt; spin; max resid(k); each band:
  2.56E-13 3.47E-13 1.53E-13 1.82E-13 5.74E-13
  -0.1875  0.5000  0.1250    1  1.04715E-11 kpt; spin; max resid(k); each band:
  1.43E-13 3.73E-13 2.30E-13 4.34E-13 1.05E-11
  -0.3750 -0.4375  0.0000    1  1.84326E-11 kpt; spin; max resid(k); each band:
  5.61E-13 2.65E-14 9.05E-14 6.25E-15 1.84E-11
  -0.3125 -0.4375  0.0625    1  9.20165E-12 kpt; spin; max resid(k); each band:
  4.65E-13 7.33E-14 1.45E-13 1.33E-13 9.20E-12
  -0.2500 -0.4375  0.1250    1  1.22738E-11 kpt; spin; max resid(k); each band:
  3.59E-13 1.20E-13 2.39E-13 2.87E-13 1.23E-11
  -0.1875 -0.4375  0.1875    1  6.32736E-08 kpt; spin; max resid(k); each band:
  2.26E-13 7.00E-14 3.06E-13 5.63E-13 6.33E-08
  -0.1250 -0.4375  0.2500    1  7.37266E-13 kpt; spin; max resid(k); each band:
  6.42E-14 3.43E-13 7.09E-14 5.00E-13 7.37E-13
  -0.0625 -0.4375  0.3125    1  5.66323E-13 kpt; spin; max resid(k); each band:
  9.08E-14 3.82E-13 3.55E-14 2.04E-13 5.66E-13
  -0.0625  0.1250  0.0000    1  2.37662E-09 kpt; spin; max resid(k); each band:
  2.62E-13 2.49E-13 1.90E-13 2.36E-14 2.38E-09
  -0.1250  0.1875  0.0000    1  1.61972E-08 kpt; spin; max resid(k); each band:
  2.44E-13 3.60E-13 2.03E-13 5.98E-15 1.62E-08
  -0.1875  0.2500  0.0000    1  9.63185E-13 kpt; spin; max resid(k); each band:
  1.91E-13 4.45E-13 2.02E-13 6.32E-15 9.63E-13
  -0.2500  0.3125  0.0000    1  4.82341E-13 kpt; spin; max resid(k); each band:
  1.49E-13 4.82E-13 1.81E-13 7.52E-15 4.58E-13
 outwf : prtvol=0 or 1, do not print more k-points.

 reduced coordinates (array xred) for    2 atoms
       0.000000000000      0.000000000000      0.000000000000
       0.250000000000      0.250000000000      0.250000000000
 rms dE/dt=  0.0000E+00; max dE/dt=  0.0000E+00; dE/dt below (all hartree)
    1       0.000000000000      0.000000000000      0.000000000000
    2       0.000000000000      0.000000000000      0.000000000000

 cartesian coordinates (angstrom) at end:
    1      0.00000000000000     0.00000000000000     0.00000000000000
    2      1.34675599586155     1.34675599586155     1.34675599586155

 cartesian forces (hartree/bohr) at end:
    1     -0.00000000000000    -0.00000000000000    -0.00000000000000
    2     -0.00000000000000    -0.00000000000000    -0.00000000000000
 frms,max,avg= 0.0000000E+00 0.0000000E+00   0.000E+00  0.000E+00  0.000E+00 h/b

 cartesian forces (eV/Angstrom) at end:
    1     -0.00000000000000    -0.00000000000000    -0.00000000000000
    2     -0.00000000000000    -0.00000000000000    -0.00000000000000
 frms,max,avg= 0.0000000E+00 0.0000000E+00   0.000E+00  0.000E+00  0.000E+00 e/A
 length scales= 10.180000000000 10.180000000000 10.180000000000 bohr
              =  5.387023983446  5.387023983446  5.387023983446 angstroms
 prteigrs : about to open file tbase3_xo_DS4_EIG
 Fermi (or HOMO) energy (hartree) =   0.21820   Average Vxc (hartree)=  -0.35603
 Eigenvalues (hartree) for nkpt=  60  k points:
 kpt#   1, nband=  5, wtk=  0.01172, kpt= -0.0625 -0.1250  0.0000 (reduced coord)
  -0.21840   0.17363   0.20152   0.20810   0.30804
 kpt#   2, nband=  5, wtk=  0.01172, kpt= -0.0625 -0.2500  0.0000 (reduced coord)
  -0.19830   0.08856   0.18313   0.19118   0.30800
 kpt#   3, nband=  5, wtk=  0.01172, kpt= -0.1250 -0.1875  0.0000 (reduced coord)
  -0.20818   0.14082   0.18003   0.18374   0.29140
 kpt#   4, nband=  5, wtk=  0.02344, kpt= -0.0625 -0.1875  0.0625 (reduced coord)
  -0.20320   0.11486   0.16457   0.19937   0.31354
 kpt#   5, nband=  5, wtk=  0.01172, kpt= -0.0625 -0.3750  0.0000 (reduced coord)
  -0.16580   0.01035   0.17278   0.17354   0.29547
 kpt#   6, nband=  5, wtk=  0.01172, kpt= -0.1250 -0.3125  0.0000 (reduced coord)
  -0.18351   0.06126   0.16301   0.16486   0.30251
 kpt#   7, nband=  5, wtk=  0.02344, kpt= -0.0625 -0.3125  0.0625 (reduced coord)
  -0.17430   0.03564   0.14775   0.18117   0.31282
 kpt#   8, nband=  5, wtk=  0.01172, kpt= -0.1875 -0.2500  0.0000 (reduced coord)
  -0.19298   0.10499   0.15853   0.15955   0.27426
 kpt#   9, nband=  5, wtk=  0.02344, kpt= -0.1250 -0.2500  0.0625 (reduced coord)
  -0.18817   0.08441   0.14269   0.17381   0.29784
 kpt#  10, nband=  5, wtk=  0.02344, kpt= -0.0625 -0.2500  0.1250 (reduced coord)
  -0.17867   0.05964   0.12123   0.18494   0.33192
 kpt#  11, nband=  5, wtk=  0.01172, kpt= -0.0625  0.5000  0.0000 (reduced coord)
  -0.13620  -0.03815   0.16261   0.17225   0.28953
 kpt#  12, nband=  5, wtk=  0.01172, kpt= -0.1250 -0.4375  0.0000 (reduced coord)
  -0.14873  -0.00885   0.14264   0.16040   0.30041
 kpt#  13, nband=  5, wtk=  0.02344, kpt= -0.0625 -0.4375  0.0625 (reduced coord)
  -0.13971  -0.02633   0.14152   0.16823   0.30598
 kpt#  14, nband=  5, wtk=  0.01172, kpt= -0.1875 -0.3750  0.0000 (reduced coord)
  -0.16412   0.03534   0.13095   0.14883   0.28637
 kpt#  15, nband=  5, wtk=  0.02344, kpt= -0.1250 -0.3750  0.0625 (reduced coord)
  -0.15577   0.01334   0.12450   0.15784   0.30537
 kpt#  16, nband=  5, wtk=  0.02344, kpt= -0.0625 -0.3750  0.1250 (reduced coord)
  -0.14400  -0.00666   0.11054   0.16528   0.32043
 kpt#  17, nband=  5, wtk=  0.01172, kpt= -0.2500 -0.3125  0.0000 (reduced coord)
  -0.17294   0.06674   0.13740   0.14218   0.25979
 kpt#  18, nband=  5, wtk=  0.02344, kpt= -0.1875 -0.3125  0.0625 (reduced coord)
  -0.16842   0.05317   0.12316   0.14848   0.28318
 kpt#  19, nband=  5, wtk=  0.02344, kpt= -0.1250 -0.3125  0.1250 (reduced coord)
  -0.15954   0.03358   0.10312   0.15736   0.32062
 kpt#  20, nband=  5, wtk=  0.02344, kpt= -0.0625 -0.3125  0.1875 (reduced coord)
  -0.14666   0.01316   0.08424   0.16350   0.32110
 kpt#  21, nband=  5, wtk=  0.01172, kpt= -0.0625  0.3750  0.0000 (reduced coord)
  -0.15383  -0.01099   0.16051   0.18061   0.29250
 kpt#  22, nband=  5, wtk=  0.01172, kpt= -0.1250  0.4375  0.0000 (reduced coord)
  -0.13114  -0.03548   0.13038   0.16678   0.30243
 kpt#  23, nband=  5, wtk=  0.01172, kpt= -0.1875  0.5000  0.0000 (reduced coord)
  -0.12949  -0.02305   0.10765   0.14996   0.28892
 kpt#  24, nband=  5, wtk=  0.02344, kpt= -0.1250  0.5000  0.0625 (reduced coord)
  -0.12603  -0.03347   0.11369   0.15425   0.30858
 kpt#  25, nband=  5, wtk=  0.01172, kpt= -0.2500 -0.4375  0.0000 (reduced coord)
  -0.14054   0.00918   0.10218   0.13623   0.27116
 kpt#  26, nband=  5, wtk=  0.02344, kpt= -0.1875 -0.4375  0.0625 (reduced coord)
  -0.13370  -0.00672   0.09831   0.13911   0.29111
 kpt#  27, nband=  5, wtk=  0.02344, kpt= -0.1250 -0.4375  0.1250 (reduced coord)
  -0.12487  -0.02150   0.09183   0.14156   0.32860
 kpt#  28, nband=  5, wtk=  0.02344, kpt= -0.0625 -0.4375  0.1875 (reduced coord)
  -0.11633  -0.03073   0.08312   0.14525   0.30078
 kpt#  29, nband=  5, wtk=  0.01172, kpt= -0.3125 -0.3750  0.0000 (reduced coord)
  -0.14828   0.02718   0.12153   0.12882   0.24945
 kpt#  30, nband=  5, wtk=  0.02344, kpt= -0.2500 -0.3750  0.0625 (reduced coord)
  -0.14420   0.02010   0.10688   0.12874   0.27160
 kpt#  31, nband=  5, wtk=  0.02344, kpt= -0.1875 -0.3750  0.1250 (reduced coord)
  -0.13632   0.00742   0.08901   0.12993   0.30916
 kpt#  32, nband=  5, wtk=  0.02344, kpt= -0.1250 -0.3750  0.1875 (reduced coord)
  -0.12523  -0.00776   0.07249   0.13512   0.33738
 kpt#  33, nband=  5, wtk=  0.02344, kpt= -0.0625 -0.3750  0.2500 (reduced coord)
  -0.11209  -0.02248   0.06063   0.14085   0.29581
 kpt#  34, nband=  5, wtk=  0.01172, kpt= -0.0625  0.2500  0.0000 (reduced coord)
  -0.18860   0.06088   0.16844   0.19614   0.30391
 kpt#  35, nband=  5, wtk=  0.01172, kpt= -0.1250  0.3125  0.0000 (reduced coord)
  -0.16091   0.01257   0.12925   0.18224   0.31314
 kpt#  36, nband=  5, wtk=  0.01172, kpt= -0.1875  0.3750  0.0000 (reduced coord)
  -0.13006  -0.02201   0.09590   0.16226   0.30020
 kpt#  37, nband=  5, wtk=  0.01172, kpt= -0.2500  0.4375  0.0000 (reduced coord)
  -0.11097  -0.03169   0.07615   0.14255   0.27810
 kpt#  38, nband=  5, wtk=  0.01172, kpt= -0.3125  0.5000  0.0000 (reduced coord)
  -0.11349  -0.01896   0.08137   0.12760   0.25994
 kpt#  39, nband=  5, wtk=  0.02344, kpt= -0.2500  0.5000  0.0625 (reduced coord)
  -0.10951  -0.02597   0.07446   0.12756   0.28013
 kpt#  40, nband=  5, wtk=  0.02344, kpt= -0.1875  0.5000  0.1250 (reduced coord)
  -0.10624  -0.03167   0.07308   0.12290   0.31915
 kpt#  41, nband=  5, wtk=  0.01172, kpt= -0.3750 -0.4375  0.0000 (reduced coord)
  -0.11937  -0.01238   0.11098   0.11967   0.24405
 kpt#  42, nband=  5, wtk=  0.02344, kpt= -0.3125 -0.4375  0.0625 (reduced coord)
  -0.11599  -0.01474   0.09512   0.11606   0.26396
 kpt#  43, nband=  5, wtk=  0.02344, kpt= -0.2500 -0.4375  0.1250 (reduced coord)
  -0.10972  -0.02010   0.07933   0.10903   0.30093
 kpt#  44, nband=  5, wtk=  0.02344, kpt= -0.1875 -0.4375  0.1875 (reduced coord)
  -0.10162  -0.02819   0.06665   0.10787   0.34690
 kpt#  45, nband=  5, wtk=  0.02344, kpt= -0.1250 -0.4375  0.2500 (reduced coord)
  -0.09350  -0.03695   0.05942   0.11380   0.31401
 kpt#  46, nband=  5, wtk=  0.02344, kpt= -0.0625 -0.4375  0.3125 (reduced coord)
  -0.08760  -0.04398   0.06038   0.12208   0.27442
 kpt#  47, nband=  5, wtk=  0.01172, kpt= -0.0625  0.1250  0.0000 (reduced coord)
  -0.21331   0.14521   0.18680   0.21385   0.32021
 kpt#  48, nband=  5, wtk=  0.01172, kpt= -0.1250  0.1875  0.0000 (reduced coord)
  -0.19331   0.08675   0.14247   0.20224   0.32825
 kpt#  49, nband=  5, wtk=  0.01172, kpt= -0.1875  0.2500  0.0000 (reduced coord)
  -0.16470   0.03552   0.10093   0.18273   0.32048
 kpt#  50, nband=  5, wtk=  0.01172, kpt= -0.2500  0.3125  0.0000 (reduced coord)
  -0.13046  -0.00579   0.06946   0.15976   0.29659
 prteigrs : prtvol=0 or 1, do not print more k-points.

 Total charge density [el/Bohr^3]
,     Maximum=    8.6538E-02  at reduced coord.    0.1000    0.1000    0.7000
,Next maximum=    8.6538E-02  at reduced coord.    0.1500    0.1500    0.5500
,     Minimum=    3.6135E-03  at reduced coord.    0.5000    0.5000    0.5000
,Next minimum=    3.6135E-03  at reduced coord.    0.7500    0.7500    0.7500
,  Integrated=    8.0000E+00

--------------------------------------------------------------------------------
 Components of total free energy (in Hartree) :

    Kinetic energy  =  3.03896919511889E+00
    Hartree energy  =  5.33036960432973E-01
    XC energy       = -3.54517778411028E+00
    Ewald energy    = -8.46648022654903E+00
    PspCore energy  =  8.69853998680376E-02
    Loc. psp. energy= -2.40779125118042E+00
    NL   psp  energy=  1.88785206590005E+00
    >>>>>>>>> Etotal= -8.87260564051979E+00

 Other information on the energy :
    Total energy(eV)= -2.41435877922585E+02 ; Band energy (Ha)=   2.5448117283E-01
--------------------------------------------------------------------------------

 Cartesian components of stress tensor (hartree/bohr^3)
  sigma(1 1)= -5.68250558E-06  sigma(3 2)=  0.00000000E+00
  sigma(2 2)= -5.68250558E-06  sigma(3 1)=  0.00000000E+00
  sigma(3 3)= -5.68250558E-06  sigma(2 1)=  0.00000000E+00

-Cartesian components of stress tensor (GPa)         [Pressure=  1.6719E-01 GPa]
- sigma(1 1)= -1.67185058E-01  sigma(3 2)=  0.00000000E+00
- sigma(2 2)= -1.67185058E-01  sigma(3 1)=  0.00000000E+00
- sigma(3 3)= -1.67185058E-01  sigma(2 1)=  0.00000000E+00

== END DATASET(S) ==============================================================
================================================================================
  
 -outvars: echo values of variables after computation  --------
            acell      1.0180000000E+01  1.0180000000E+01  1.0180000000E+01 Bohr
              amu      2.80855000E+01
           diemac      1.20000000E+01
             ecut      8.00000000E+00 Hartree
           etotal1    -8.8662238960E+00
           etotal2    -8.8724909739E+00
           etotal3    -8.8726017432E+00
           etotal4    -8.8726056405E+00
            fcart1    -0.0000000000E+00 -0.0000000000E+00 -0.0000000000E+00
                      -0.0000000000E+00 -0.0000000000E+00 -0.0000000000E+00
            fcart2    -0.0000000000E+00 -0.0000000000E+00 -0.0000000000E+00
                      -0.0000000000E+00 -0.0000000000E+00 -0.0000000000E+00
            fcart3    -0.0000000000E+00 -0.0000000000E+00 -0.0000000000E+00
                      -0.0000000000E+00 -0.0000000000E+00 -0.0000000000E+00
            fcart4    -0.0000000000E+00 -0.0000000000E+00 -0.0000000000E+00
                      -0.0000000000E+00 -0.0000000000E+00 -0.0000000000E+00
           getwfk          -1
           jdtset        1    2    3    4
              kpt1    -2.50000000E-01  5.00000000E-01  0.00000000E+00
                      -2.50000000E-01  0.00000000E+00  0.00000000E+00
              kpt2    -1.25000000E-01 -2.50000000E-01  0.00000000E+00
                      -1.25000000E-01  5.00000000E-01  0.00000000E+00
                      -2.50000000E-01 -3.75000000E-01  0.00000000E+00
                      -1.25000000E-01 -3.75000000E-01  1.25000000E-01
                      -1.25000000E-01  2.50000000E-01  0.00000000E+00
                      -2.50000000E-01  3.75000000E-01  0.00000000E+00
                      -3.75000000E-01  5.00000000E-01  0.00000000E+00
                      -2.50000000E-01  5.00000000E-01  1.25000000E-01
                      -1.25000000E-01  0.00000000E+00  0.00000000E+00
                      -3.75000000E-01  0.00000000E+00  0.00000000E+00
              kpt3    -8.33333333E-02 -1.66666667E-01  0.00000000E+00
                      -8.33333333E-02 -3.33333333E-01  0.00000000E+00
                      -1.66666667E-01 -2.50000000E-01  0.00000000E+00
                      -8.33333333E-02 -2.50000000E-01  8.33333333E-02
                      -8.33333333E-02  5.00000000E-01  0.00000000E+00
                      -1.66666667E-01 -4.16666667E-01  0.00000000E+00
                      -8.33333333E-02 -4.16666667E-01  8.33333333E-02
                      -2.50000000E-01 -3.33333333E-01  0.00000000E+00
                      -1.66666667E-01 -3.33333333E-01  8.33333333E-02
                      -8.33333333E-02 -3.33333333E-01  1.66666667E-01
                      -8.33333333E-02  3.33333333E-01  0.00000000E+00
                      -1.66666667E-01  4.16666667E-01  0.00000000E+00
                      -2.50000000E-01  5.00000000E-01  0.00000000E+00
                      -1.66666667E-01  5.00000000E-01  8.33333333E-02
                      -3.33333333E-01 -4.16666667E-01  0.00000000E+00
                      -2.50000000E-01 -4.16666667E-01  8.33333333E-02
                      -1.66666667E-01 -4.16666667E-01  1.66666667E-01
                      -8.33333333E-02 -4.16666667E-01  2.50000000E-01
                      -8.33333333E-02  1.66666667E-01  0.00000000E+00
                      -1.66666667E-01  2.50000000E-01  0.00000000E+00
                      -2.50000000E-01  3.33333333E-01  0.00000000E+00
                      -3.33333333E-01  4.16666667E-01  0.00000000E+00
                      -4.16666667E-01  5.00000000E-01  0.00000000E+00
                      -3.33333333E-01  5.00000000E-01  8.33333333E-02
                      -2.50000000E-01  5.00000000E-01  1.66666667E-01
                      -8.33333333E-02  0.00000000E+00  0.00000000E+00
                      -2.50000000E-01  0.00000000E+00  0.00000000E+00
                      -4.16666667E-01  0.00000000E+00  0.00000000E+00
              kpt4    -6.25000000E-02 -1.25000000E-01  0.00000000E+00
                      -6.25000000E-02 -2.50000000E-01  0.00000000E+00
                      -1.25000000E-01 -1.87500000E-01  0.00000000E+00
                      -6.25000000E-02 -1.87500000E-01  6.25000000E-02
                      -6.25000000E-02 -3.75000000E-01  0.00000000E+00
                      -1.25000000E-01 -3.12500000E-01  0.00000000E+00
                      -6.25000000E-02 -3.12500000E-01  6.25000000E-02
                      -1.87500000E-01 -2.50000000E-01  0.00000000E+00
                      -1.25000000E-01 -2.50000000E-01  6.25000000E-02
                      -6.25000000E-02 -2.50000000E-01  1.25000000E-01
                      -6.25000000E-02  5.00000000E-01  0.00000000E+00
                      -1.25000000E-01 -4.37500000E-01  0.00000000E+00
                      -6.25000000E-02 -4.37500000E-01  6.25000000E-02
                      -1.87500000E-01 -3.75000000E-01  0.00000000E+00
                      -1.25000000E-01 -3.75000000E-01  6.25000000E-02
                      -6.25000000E-02 -3.75000000E-01  1.25000000E-01
                      -2.50000000E-01 -3.12500000E-01  0.00000000E+00
                      -1.87500000E-01 -3.12500000E-01  6.25000000E-02
                      -1.25000000E-01 -3.12500000E-01  1.25000000E-01
                      -6.25000000E-02 -3.12500000E-01  1.87500000E-01
                      -6.25000000E-02  3.75000000E-01  0.00000000E+00
                      -1.25000000E-01  4.37500000E-01  0.00000000E+00
                      -1.87500000E-01  5.00000000E-01  0.00000000E+00
                      -1.25000000E-01  5.00000000E-01  6.25000000E-02
                      -2.50000000E-01 -4.37500000E-01  0.00000000E+00
                      -1.87500000E-01 -4.37500000E-01  6.25000000E-02
                      -1.25000000E-01 -4.37500000E-01  1.25000000E-01
                      -6.25000000E-02 -4.37500000E-01  1.87500000E-01
                      -3.12500000E-01 -3.75000000E-01  0.00000000E+00
                      -2.50000000E-01 -3.75000000E-01  6.25000000E-02
                      -1.87500000E-01 -3.75000000E-01  1.25000000E-01
                      -1.25000000E-01 -3.75000000E-01  1.87500000E-01
                      -6.25000000E-02 -3.75000000E-01  2.50000000E-01
                      -6.25000000E-02  2.50000000E-01  0.00000000E+00
                      -1.25000000E-01  3.12500000E-01  0.00000000E+00
                      -1.87500000E-01  3.75000000E-01  0.00000000E+00
                      -2.50000000E-01  4.37500000E-01  0.00000000E+00
                      -3.12500000E-01  5.00000000E-01  0.00000000E+00
                      -2.50000000E-01  5.00000000E-01  6.25000000E-02
                      -1.87500000E-01  5.00000000E-01  1.25000000E-01
                      -3.75000000E-01 -4.37500000E-01  0.00000000E+00
                      -3.12500000E-01 -4.37500000E-01  6.25000000E-02
                      -2.50000000E-01 -4.37500000E-01  1.25000000E-01
                      -1.87500000E-01 -4.37500000E-01  1.87500000E-01
                      -1.25000000E-01 -4.37500000E-01  2.50000000E-01
                      -6.25000000E-02 -4.37500000E-01  3.12500000E-01
                      -6.25000000E-02  1.25000000E-01  0.00000000E+00
                      -1.25000000E-01  1.87500000E-01  0.00000000E+00
                      -1.87500000E-01  2.50000000E-01  0.00000000E+00
                      -2.50000000E-01  3.12500000E-01  0.00000000E+00
                       outvar_i_n : Printing only first  50 k-points.
         kptrlatt1       2   -2    2     -2    2    2     -2   -2    2
         kptrlatt2       4   -4    4     -4    4    4     -4   -4    4
         kptrlatt3       6   -6    6     -6    6    6     -6   -6    6
         kptrlatt4       8   -8    8     -8    8    8     -8   -8    8
          kptrlen1     2.03600000E+01
          kptrlen2     4.07200000E+01
          kptrlen3     6.10800000E+01
          kptrlen4     8.14400000E+01
P           mkmem1          2
P           mkmem2         10
P           mkmem3         28
P           mkmem4         60
            natom           2
            nband1          5
            nband2          5
            nband3          5
            nband4          5
           ndtset           4
            ngfft          20      20      20
             nkpt1          2
             nkpt2         10
             nkpt3         28
             nkpt4         60
            nstep          10
             nsym          48
           ntypat           1
              occ1     2.000000  2.000000  2.000000  2.000000  0.000000
              occ2     2.000000  2.000000  2.000000  2.000000  0.000000
              occ3     2.000000  2.000000  2.000000  2.000000  0.000000
              occ4     2.000000  2.000000  2.000000  2.000000  0.000000
            rprim      0.0000000000E+00  5.0000000000E-01  5.0000000000E-01
                       5.0000000000E-01  0.0000000000E+00  5.0000000000E-01
                       5.0000000000E-01  5.0000000000E-01  0.0000000000E+00
           shiftk      5.00000000E-01  5.00000000E-01  5.00000000E-01
          spgroup         227
           strten1    -1.9052366455E-05 -1.9052366455E-05 -1.9052366455E-05
                       0.0000000000E+00  0.0000000000E+00  0.0000000000E+00
           strten2    -5.5193644285E-06 -5.5193644285E-06 -5.5193644285E-06
                       0.0000000000E+00  0.0000000000E+00  0.0000000000E+00
           strten3    -5.6131120924E-06 -5.6131120924E-06 -5.6131120924E-06
                       0.0000000000E+00  0.0000000000E+00  0.0000000000E+00
           strten4    -5.6825055815E-06 -5.6825055815E-06 -5.6825055815E-06
                       0.0000000000E+00  0.0000000000E+00  0.0000000000E+00
           symrel      1  0  0   0  1  0   0  0  1      -1  0  0   0 -1  0   0  0 -1
                       0 -1  1   0 -1  0   1 -1  0       0  1 -1   0  1  0  -1  1  0
                      -1  0  0  -1  0  1  -1  1  0       1  0  0   1  0 -1   1 -1  0
                       0  1 -1   1  0 -1   0  0 -1       0 -1  1  -1  0  1   0  0  1
                      -1  0  0  -1  1  0  -1  0  1       1  0  0   1 -1  0   1  0 -1
                       0 -1  1   1 -1  0   0 -1  0       0  1 -1  -1  1  0   0  1  0
                       1  0  0   0  0  1   0  1  0      -1  0  0   0  0 -1   0 -1  0
                       0  1 -1   0  0 -1   1  0 -1       0 -1  1   0  0  1  -1  0  1
                      -1  0  1  -1  1  0  -1  0  0       1  0 -1   1 -1  0   1  0  0
                       0 -1  0   1 -1  0   0 -1  1       0  1  0  -1  1  0   0  1 -1
                       1  0 -1   0  0 -1   0  1 -1      -1  0  1   0  0  1   0 -1  1
                       0  1  0   0  0  1   1  0  0       0 -1  0   0  0 -1  -1  0  0
                       1  0 -1   0  1 -1   0  0 -1      -1  0  1   0 -1  1   0  0  1
                       0 -1  0   0 -1  1   1 -1  0       0  1  0   0  1 -1  -1  1  0
                      -1  0  1  -1  0  0  -1  1  0       1  0 -1   1  0  0   1 -1  0
                       0  1  0   1  0  0   0  0  1       0 -1  0  -1  0  0   0  0 -1
                       0  0 -1   0  1 -1   1  0 -1       0  0  1   0 -1  1  -1  0  1
                       1 -1  0   0 -1  1   0 -1  0      -1  1  0   0  1 -1   0  1  0
                       0  0  1   1  0  0   0  1  0       0  0 -1  -1  0  0   0 -1  0
                      -1  1  0  -1  0  0  -1  0  1       1 -1  0   1  0  0   1  0 -1
                       0  0  1   0  1  0   1  0  0       0  0 -1   0 -1  0  -1  0  0
                       1 -1  0   0 -1  0   0 -1  1      -1  1  0   0  1  0   0  1 -1
                       0  0 -1   1  0 -1   0  1 -1       0  0  1  -1  0  1   0 -1  1
                      -1  1  0  -1  0  1  -1  0  0       1 -1  0   1  0 -1   1  0  0
            tnons      0.0000000  0.0000000  0.0000000     0.2500000  0.2500000  0.2500000
                       0.0000000  0.0000000  0.0000000     0.2500000  0.2500000  0.2500000
                       0.0000000  0.0000000  0.0000000     0.2500000  0.2500000  0.2500000
                       0.0000000  0.0000000  0.0000000     0.2500000  0.2500000  0.2500000
                       0.0000000  0.0000000  0.0000000     0.2500000  0.2500000  0.2500000
                       0.0000000  0.0000000  0.0000000     0.2500000  0.2500000  0.2500000
                       0.0000000  0.0000000  0.0000000     0.2500000  0.2500000  0.2500000
                       0.0000000  0.0000000  0.0000000     0.2500000  0.2500000  0.2500000
                       0.0000000  0.0000000  0.0000000     0.2500000  0.2500000  0.2500000
                       0.0000000  0.0000000  0.0000000     0.2500000  0.2500000  0.2500000
                       0.0000000  0.0000000  0.0000000     0.2500000  0.2500000  0.2500000
                       0.0000000  0.0000000  0.0000000     0.2500000  0.2500000  0.2500000
                       0.0000000  0.0000000  0.0000000     0.2500000  0.2500000  0.2500000
                       0.0000000  0.0000000  0.0000000     0.2500000  0.2500000  0.2500000
                       0.0000000  0.0000000  0.0000000     0.2500000  0.2500000  0.2500000
                       0.0000000  0.0000000  0.0000000     0.2500000  0.2500000  0.2500000
                       0.0000000  0.0000000  0.0000000     0.2500000  0.2500000  0.2500000
                       0.0000000  0.0000000  0.0000000     0.2500000  0.2500000  0.2500000
                       0.0000000  0.0000000  0.0000000     0.2500000  0.2500000  0.2500000
                       0.0000000  0.0000000  0.0000000     0.2500000  0.2500000  0.2500000
                       0.0000000  0.0000000  0.0000000     0.2500000  0.2500000  0.2500000
                       0.0000000  0.0000000  0.0000000     0.2500000  0.2500000  0.2500000
                       0.0000000  0.0000000  0.0000000     0.2500000  0.2500000  0.2500000
                       0.0000000  0.0000000  0.0000000     0.2500000  0.2500000  0.2500000
           toldfe      1.00000000E-06 Hartree
            typat      1  1
              wtk1       0.75000    0.25000
              wtk2       0.09375    0.09375    0.09375    0.18750    0.09375    0.09375
                         0.09375    0.18750    0.03125    0.03125
              wtk3       0.02778    0.02778    0.02778    0.05556    0.02778    0.02778
                         0.05556    0.02778    0.05556    0.05556    0.02778    0.02778
                         0.02778    0.05556    0.02778    0.05556    0.05556    0.05556
                         0.02778    0.02778    0.02778    0.02778    0.02778    0.05556
                         0.05556    0.00926    0.00926    0.00926
              wtk4       0.01172    0.01172    0.01172    0.02344    0.01172    0.01172
                         0.02344    0.01172    0.02344    0.02344    0.01172    0.01172
                         0.02344    0.01172    0.02344    0.02344    0.01172    0.02344
                         0.02344    0.02344    0.01172    0.01172    0.01172    0.02344
                         0.01172    0.02344    0.02344    0.02344    0.01172    0.02344
                         0.02344    0.02344    0.02344    0.01172    0.01172    0.01172
                         0.01172    0.01172    0.02344    0.02344    0.01172    0.02344
                         0.02344    0.02344    0.02344    0.02344    0.01172    0.01172
                         0.01172    0.01172
                       outvars : Printing only first  50 k-points.
           xangst      0.0000000000E+00  0.0000000000E+00  0.0000000000E+00
                       1.3467559959E+00  1.3467559959E+00  1.3467559959E+00
            xcart      0.0000000000E+00  0.0000000000E+00  0.0000000000E+00
                       2.5450000000E+00  2.5450000000E+00  2.5450000000E+00
             xred      0.0000000000E+00  0.0000000000E+00  0.0000000000E+00
                       2.5000000000E-01  2.5000000000E-01  2.5000000000E-01
            znucl       14.00000

================================================================================


- Timing analysis has been suppressed with timopt=0



================================================================================

 Suggested references for the acknowledgment of ABINIT usage.

 The users of ABINIT have little formal obligations with respect to the ABINIT group
 (those specified in the GNU General Public License, http://www.gnu.org/copyleft/gpl.txt).
 However, it is common practice in the scientific literature,
 to acknowledge the efforts of people that have made the research possible.
 In this spirit, please find below suggested citations of work written by ABINIT developers,
 corresponding to implementations inside of ABINIT that you have used in the present run.
 Note also that it will be of great value to readers of publications presenting these results,
 to read papers enabling them to understand the theoretical formalism and details
 of the ABINIT implementation.
 For information on why they are suggested, see also http://www.abinit.org/about/?text=acknowledgments.

 [1] ABINIT : First-principles approach of materials and nanosystem properties.
 X. Gonze, B. Amadon, P.-M. Anglade, J.-M. Beuken, F. Bottin, P. Boulanger, F. Bruneval,
 D. Caliste, R. Caracas, M. Cote, T. Deutsch, L. Genovese, Ph. Ghosez, M. Giantomassi
 S. Goedecker, D.R. Hamann, P. Hermet, F. Jollet, G. Jomard, S. Leroux, M. Mancini, S. Mazevet,
 M.J.T. Oliveira, G. Onida, Y. Pouillon, T. Rangel, G.-M. Rignanese, D. Sangalli, R. Shaltaf,
 M. Torrent, M.J. Verstraete, G. Zerah, J.W. Zwanziger
 Computer Phys. Comm. 180, 2582-2615 (2009).
 Comment : the third generic paper describing the ABINIT project.
 Note that a version of this paper, that is not formatted for Computer Phys. Comm. 
 is available at http://www.abinit.org/about/ABINIT_CPC_v10.pdf .
 The licence allows the authors to put it on the Web.

 [2] A brief introduction to the ABINIT software package.
 X. Gonze, G.-M. Rignanese, M. Verstraete, J.-M. Beuken, Y. Pouillon, R. Caracas, F. Jollet,
 M. Torrent, G. Zerah, M. Mikami, Ph. Ghosez, M. Veithen, J.-Y. Raty, V. Olevano, F. Bruneval,
 L. Reining, R. Godby, G. Onida, D.R. Hamann, and D.C. Allan.
 Z. Kristallogr. 220, 558-562 (2005).
 Comment : the second generic paper describing the ABINIT project. Note that this paper
 should be cited especially if you are using the GW part of ABINIT, as several authors
 of this part are not in the list of authors of the first or third paper.
 The .pdf of the latter paper is available at http://www.abinit.org/about/zfk_0505-06_558-562.pdf.
 Note that it should not redistributed (Copyright by Oldenburg Wissenshaftverlag,
 the licence allows the authors to put it on the Web).


 And optionally :

 [3] First-principles computation of material properties : the ABINIT software project. 
 X. Gonze, J.-M. Beuken, R. Caracas, F. Detraux, M. Fuchs, G.-M. Rignanese, L. Sindic,
 M. Verstraete, G. Zerah, F. Jollet, M. Torrent, A. Roy, M. Mikami, Ph. Ghosez, J.-Y. Raty, D.C. Allan.
 Computational Materials Science 25, 478-492 (2002). http://dx.doi.org/10.1016/S0927-0256(02)00325-7
 Comment : the original paper describing the ABINIT project.

 [4] Fast radix 2, 3, 4 and 5 kernels for Fast Fourier Transformations
 on computers with overlapping multiply-add instructions.
 S. Goedecker, SIAM J. on Scientific Computing 18, 1605 (1997).
-
- Proc.   0 individual time (sec): cpu=          7.4  wall=          7.7

================================================================================

 Calculation completed.
.Delivered   10 WARNINGs and   8 COMMENTs to log file.
+Overall time at end (sec) : cpu=          7.4  wall=          7.7
