
.Version 7.4.3 of ABINIT 
.(MPI version, prepared for a i686_cygwin_gnu4.7 computer) 

.Copyright (C) 1998-2013 ABINIT group . 
 ABINIT comes with ABSOLUTELY NO WARRANTY.
 It is free software, and you are welcome to redistribute it
 under certain conditions (GNU General Public License,
 see ~abinit/COPYING or http://www.gnu.org/copyleft/gpl.txt).

 ABINIT is a project of the Universite Catholique de Louvain,
 Corning Inc. and other collaborators, see ~abinit/doc/developers/contributors.txt .
 Please read ~abinit/doc/users/acknowledgments.html for suggested
 acknowledgments of the ABINIT effort.
 For more information, see http://www.abinit.org .

.Starting date : Mon  4 Jun 2018.
- ( at 12h54 )
  

 herald :  WARNING -
  The starting date is more than 3 years after the initial release
  of this version of ABINIT, namely Aug 2013.
  This version of ABINIT is not supported anymore.
  Action : please, switch to a more recent version of ABINIT.
- input  file    -> tbase4_2.in
- output file    -> tbase4_2.out
- root for input  files -> tbase4_xi
- root for output files -> tbase4_xo


 DATASET    1 : space group Fm -3 m (#225); Bravais cF (face-center cubic)
================================================================================
 Values of the parameters that define the memory need for DATASET  1.
   intxc =         0  ionmov =         2    iscf =         7 xclevel =         1
  lmnmax =         3   lnmax =         3   mband =         3  mffmem =         1
P  mgfft =        15   mkmem =         2 mpssoang=         3     mpw =        90
  mqgrid =      3001   natom =         1    nfft =      3375    nkpt =         2
  nloalg =         4  nspden =         1 nspinor =         1  nsppol =         1
    nsym =        48  n1xccc =         0  ntypat =         1  occopt =         4
================================================================================
P This job should need less than                       2.142 Mbytes of memory.
  Rough estimation (10% accuracy) of disk space for files :
_ WF disk file :      0.010 Mbytes ; DEN or POT disk file :      0.028 Mbytes.
================================================================================


 DATASET    2 : space group Fm -3 m (#225); Bravais cF (face-center cubic)
================================================================================
 Values of the parameters that define the memory need for DATASET  2.
   intxc =         0  ionmov =         2    iscf =         7 xclevel =         1
  lmnmax =         3   lnmax =         3   mband =         3  mffmem =         1
P  mgfft =        15   mkmem =        10 mpssoang=         3     mpw =        92
  mqgrid =      3001   natom =         1    nfft =      3375    nkpt =        10
  nloalg =         4  nspden =         1 nspinor =         1  nsppol =         1
    nsym =        48  n1xccc =         0  ntypat =         1  occopt =         4
================================================================================
P This job should need less than                       2.188 Mbytes of memory.
  Rough estimation (10% accuracy) of disk space for files :
_ WF disk file :      0.044 Mbytes ; DEN or POT disk file :      0.028 Mbytes.
================================================================================


 DATASET    3 : space group Fm -3 m (#225); Bravais cF (face-center cubic)
================================================================================
 Values of the parameters that define the memory need for DATASET  3.
   intxc =         0  ionmov =         2    iscf =         7 xclevel =         1
  lmnmax =         3   lnmax =         3   mband =         3  mffmem =         1
P  mgfft =        15   mkmem =        28 mpssoang=         3     mpw =        94
  mqgrid =      3001   natom =         1    nfft =      3375    nkpt =        28
  nloalg =         4  nspden =         1 nspinor =         1  nsppol =         1
    nsym =        48  n1xccc =         0  ntypat =         1  occopt =         4
================================================================================
P This job should need less than                       2.294 Mbytes of memory.
  Rough estimation (10% accuracy) of disk space for files :
_ WF disk file :      0.122 Mbytes ; DEN or POT disk file :      0.028 Mbytes.
================================================================================


 DATASET    4 : space group Fm -3 m (#225); Bravais cF (face-center cubic)
================================================================================
 Values of the parameters that define the memory need for DATASET  4.
   intxc =         0  ionmov =         2    iscf =         7 xclevel =         1
  lmnmax =         3   lnmax =         3   mband =         3  mffmem =         1
P  mgfft =        15   mkmem =        60 mpssoang=         3     mpw =        95
  mqgrid =      3001   natom =         1    nfft =      3375    nkpt =        60
  nloalg =         4  nspden =         1 nspinor =         1  nsppol =         1
    nsym =        48  n1xccc =         0  ntypat =         1  occopt =         4
================================================================================
P This job should need less than                       2.482 Mbytes of memory.
  Rough estimation (10% accuracy) of disk space for files :
_ WF disk file :      0.263 Mbytes ; DEN or POT disk file :      0.028 Mbytes.
================================================================================

--------------------------------------------------------------------------------
------------- Echo of variables that govern the present computation ------------
--------------------------------------------------------------------------------
-
- outvars: echo of selected default values                                      
-   accesswff0 =  0 , fftalg0 =112 , wfoptalg0 =  0
-
- outvars: echo of global parameters not present in the input file              
-  max_nthreads =    0
-
 -outvars: echo values of preprocessed input variables --------
            acell      7.6000000000E+00  7.6000000000E+00  7.6000000000E+00 Bohr
              amu      2.69815390E+01
          dilatmx      1.05000000E+00
             ecut      6.00000000E+00 Hartree
           ecutsm      5.00000000E-01 Hartree
           getwfk          -1
           ionmov           2
           jdtset        1    2    3    4
              kpt1    -2.50000000E-01  5.00000000E-01  0.00000000E+00
                      -2.50000000E-01  0.00000000E+00  0.00000000E+00
              kpt2    -1.25000000E-01 -2.50000000E-01  0.00000000E+00
                      -1.25000000E-01  5.00000000E-01  0.00000000E+00
                      -2.50000000E-01 -3.75000000E-01  0.00000000E+00
                      -1.25000000E-01 -3.75000000E-01  1.25000000E-01
                      -1.25000000E-01  2.50000000E-01  0.00000000E+00
                      -2.50000000E-01  3.75000000E-01  0.00000000E+00
                      -3.75000000E-01  5.00000000E-01  0.00000000E+00
                      -2.50000000E-01  5.00000000E-01  1.25000000E-01
                      -1.25000000E-01  0.00000000E+00  0.00000000E+00
                      -3.75000000E-01  0.00000000E+00  0.00000000E+00
              kpt3    -8.33333333E-02 -1.66666667E-01  0.00000000E+00
                      -8.33333333E-02 -3.33333333E-01  0.00000000E+00
                      -1.66666667E-01 -2.50000000E-01  0.00000000E+00
                      -8.33333333E-02 -2.50000000E-01  8.33333333E-02
                      -8.33333333E-02  5.00000000E-01  0.00000000E+00
                      -1.66666667E-01 -4.16666667E-01  0.00000000E+00
                      -8.33333333E-02 -4.16666667E-01  8.33333333E-02
                      -2.50000000E-01 -3.33333333E-01  0.00000000E+00
                      -1.66666667E-01 -3.33333333E-01  8.33333333E-02
                      -8.33333333E-02 -3.33333333E-01  1.66666667E-01
                      -8.33333333E-02  3.33333333E-01  0.00000000E+00
                      -1.66666667E-01  4.16666667E-01  0.00000000E+00
                      -2.50000000E-01  5.00000000E-01  0.00000000E+00
                      -1.66666667E-01  5.00000000E-01  8.33333333E-02
                      -3.33333333E-01 -4.16666667E-01  0.00000000E+00
                      -2.50000000E-01 -4.16666667E-01  8.33333333E-02
                      -1.66666667E-01 -4.16666667E-01  1.66666667E-01
                      -8.33333333E-02 -4.16666667E-01  2.50000000E-01
                      -8.33333333E-02  1.66666667E-01  0.00000000E+00
                      -1.66666667E-01  2.50000000E-01  0.00000000E+00
                      -2.50000000E-01  3.33333333E-01  0.00000000E+00
                      -3.33333333E-01  4.16666667E-01  0.00000000E+00
                      -4.16666667E-01  5.00000000E-01  0.00000000E+00
                      -3.33333333E-01  5.00000000E-01  8.33333333E-02
                      -2.50000000E-01  5.00000000E-01  1.66666667E-01
                      -8.33333333E-02  0.00000000E+00  0.00000000E+00
                      -2.50000000E-01  0.00000000E+00  0.00000000E+00
                      -4.16666667E-01  0.00000000E+00  0.00000000E+00
              kpt4    -6.25000000E-02 -1.25000000E-01  0.00000000E+00
                      -6.25000000E-02 -2.50000000E-01  0.00000000E+00
                      -1.25000000E-01 -1.87500000E-01  0.00000000E+00
                      -6.25000000E-02 -1.87500000E-01  6.25000000E-02
                      -6.25000000E-02 -3.75000000E-01  0.00000000E+00
                      -1.25000000E-01 -3.12500000E-01  0.00000000E+00
                      -6.25000000E-02 -3.12500000E-01  6.25000000E-02
                      -1.87500000E-01 -2.50000000E-01  0.00000000E+00
                      -1.25000000E-01 -2.50000000E-01  6.25000000E-02
                      -6.25000000E-02 -2.50000000E-01  1.25000000E-01
                      -6.25000000E-02  5.00000000E-01  0.00000000E+00
                      -1.25000000E-01 -4.37500000E-01  0.00000000E+00
                      -6.25000000E-02 -4.37500000E-01  6.25000000E-02
                      -1.87500000E-01 -3.75000000E-01  0.00000000E+00
                      -1.25000000E-01 -3.75000000E-01  6.25000000E-02
                      -6.25000000E-02 -3.75000000E-01  1.25000000E-01
                      -2.50000000E-01 -3.12500000E-01  0.00000000E+00
                      -1.87500000E-01 -3.12500000E-01  6.25000000E-02
                      -1.25000000E-01 -3.12500000E-01  1.25000000E-01
                      -6.25000000E-02 -3.12500000E-01  1.87500000E-01
                      -6.25000000E-02  3.75000000E-01  0.00000000E+00
                      -1.25000000E-01  4.37500000E-01  0.00000000E+00
                      -1.87500000E-01  5.00000000E-01  0.00000000E+00
                      -1.25000000E-01  5.00000000E-01  6.25000000E-02
                      -2.50000000E-01 -4.37500000E-01  0.00000000E+00
                      -1.87500000E-01 -4.37500000E-01  6.25000000E-02
                      -1.25000000E-01 -4.37500000E-01  1.25000000E-01
                      -6.25000000E-02 -4.37500000E-01  1.87500000E-01
                      -3.12500000E-01 -3.75000000E-01  0.00000000E+00
                      -2.50000000E-01 -3.75000000E-01  6.25000000E-02
                      -1.87500000E-01 -3.75000000E-01  1.25000000E-01
                      -1.25000000E-01 -3.75000000E-01  1.87500000E-01
                      -6.25000000E-02 -3.75000000E-01  2.50000000E-01
                      -6.25000000E-02  2.50000000E-01  0.00000000E+00
                      -1.25000000E-01  3.12500000E-01  0.00000000E+00
                      -1.87500000E-01  3.75000000E-01  0.00000000E+00
                      -2.50000000E-01  4.37500000E-01  0.00000000E+00
                      -3.12500000E-01  5.00000000E-01  0.00000000E+00
                      -2.50000000E-01  5.00000000E-01  6.25000000E-02
                      -1.87500000E-01  5.00000000E-01  1.25000000E-01
                      -3.75000000E-01 -4.37500000E-01  0.00000000E+00
                      -3.12500000E-01 -4.37500000E-01  6.25000000E-02
                      -2.50000000E-01 -4.37500000E-01  1.25000000E-01
                      -1.87500000E-01 -4.37500000E-01  1.87500000E-01
                      -1.25000000E-01 -4.37500000E-01  2.50000000E-01
                      -6.25000000E-02 -4.37500000E-01  3.12500000E-01
                      -6.25000000E-02  1.25000000E-01  0.00000000E+00
                      -1.25000000E-01  1.87500000E-01  0.00000000E+00
                      -1.87500000E-01  2.50000000E-01  0.00000000E+00
                      -2.50000000E-01  3.12500000E-01  0.00000000E+00
                       outvar_i_n : Printing only first  50 k-points.
         kptrlatt1       2   -2    2     -2    2    2     -2   -2    2
         kptrlatt2       4   -4    4     -4    4    4     -4   -4    4
         kptrlatt3       6   -6    6     -6    6    6     -6   -6    6
         kptrlatt4       8   -8    8     -8    8    8     -8   -8    8
          kptrlen1     1.52000000E+01
          kptrlen2     3.04000000E+01
          kptrlen3     4.56000000E+01
          kptrlen4     6.08000000E+01
P           mkmem1          2
P           mkmem2         10
P           mkmem3         28
P           mkmem4         60
            natom           1
            nband1          3
            nband2          3
            nband3          3
            nband4          3
           ndtset           4
            ngfft          15      15      15
             nkpt1          2
             nkpt2         10
             nkpt3         28
             nkpt4         60
            nstep          10
             nsym          48
            ntime          10
           ntypat           1
              occ1     2.000000  1.000000  0.000000
                       2.000000  1.000000  0.000000
              occ2     2.000000  1.000000  0.000000
                       2.000000  1.000000  0.000000
                       2.000000  1.000000  0.000000
                       2.000000  1.000000  0.000000
                       2.000000  1.000000  0.000000
                       2.000000  1.000000  0.000000
                       2.000000  1.000000  0.000000
                       2.000000  1.000000  0.000000
                       2.000000  1.000000  0.000000
                       2.000000  1.000000  0.000000
              occ3     2.000000  1.000000  0.000000
                       2.000000  1.000000  0.000000
                       2.000000  1.000000  0.000000
                       2.000000  1.000000  0.000000
                       2.000000  1.000000  0.000000
                       2.000000  1.000000  0.000000
                       2.000000  1.000000  0.000000
                       2.000000  1.000000  0.000000
                       2.000000  1.000000  0.000000
                       2.000000  1.000000  0.000000
                       2.000000  1.000000  0.000000
                       2.000000  1.000000  0.000000
                       2.000000  1.000000  0.000000
                       2.000000  1.000000  0.000000
                       2.000000  1.000000  0.000000
                       2.000000  1.000000  0.000000
                       2.000000  1.000000  0.000000
                       2.000000  1.000000  0.000000
                       2.000000  1.000000  0.000000
                       2.000000  1.000000  0.000000
                       2.000000  1.000000  0.000000
                       2.000000  1.000000  0.000000
                       2.000000  1.000000  0.000000
                       2.000000  1.000000  0.000000
                       2.000000  1.000000  0.000000
                       2.000000  1.000000  0.000000
                       2.000000  1.000000  0.000000
                       2.000000  1.000000  0.000000
              occ4     2.000000  1.000000  0.000000
                       2.000000  1.000000  0.000000
                       2.000000  1.000000  0.000000
                       2.000000  1.000000  0.000000
                       2.000000  1.000000  0.000000
                       2.000000  1.000000  0.000000
                       2.000000  1.000000  0.000000
                       2.000000  1.000000  0.000000
                       2.000000  1.000000  0.000000
                       2.000000  1.000000  0.000000
                       2.000000  1.000000  0.000000
                       2.000000  1.000000  0.000000
                       2.000000  1.000000  0.000000
                       2.000000  1.000000  0.000000
                       2.000000  1.000000  0.000000
                       2.000000  1.000000  0.000000
                       2.000000  1.000000  0.000000
                       2.000000  1.000000  0.000000
                       2.000000  1.000000  0.000000
                       2.000000  1.000000  0.000000
                       2.000000  1.000000  0.000000
                       2.000000  1.000000  0.000000
                       2.000000  1.000000  0.000000
                       2.000000  1.000000  0.000000
                       2.000000  1.000000  0.000000
                       2.000000  1.000000  0.000000
                       2.000000  1.000000  0.000000
                       2.000000  1.000000  0.000000
                       2.000000  1.000000  0.000000
                       2.000000  1.000000  0.000000
                       2.000000  1.000000  0.000000
                       2.000000  1.000000  0.000000
                       2.000000  1.000000  0.000000
                       2.000000  1.000000  0.000000
                       2.000000  1.000000  0.000000
                       2.000000  1.000000  0.000000
                       2.000000  1.000000  0.000000
                       2.000000  1.000000  0.000000
                       2.000000  1.000000  0.000000
                       2.000000  1.000000  0.000000
                       2.000000  1.000000  0.000000
                       2.000000  1.000000  0.000000
                       2.000000  1.000000  0.000000
                       2.000000  1.000000  0.000000
                       2.000000  1.000000  0.000000
                       2.000000  1.000000  0.000000
                       2.000000  1.000000  0.000000
                       2.000000  1.000000  0.000000
                       2.000000  1.000000  0.000000
                       2.000000  1.000000  0.000000
                       prtocc : prtvol=0, do not print more k-points.
           occopt           4
          optcell           1
            rprim      0.0000000000E+00  5.0000000000E-01  5.0000000000E-01
                       5.0000000000E-01  0.0000000000E+00  5.0000000000E-01
                       5.0000000000E-01  5.0000000000E-01  0.0000000000E+00
           shiftk      5.00000000E-01  5.00000000E-01  5.00000000E-01
          spgroup         225
           symrel      1  0  0   0  1  0   0  0  1      -1  0  0   0 -1  0   0  0 -1
                       0 -1  1   0 -1  0   1 -1  0       0  1 -1   0  1  0  -1  1  0
                      -1  0  0  -1  0  1  -1  1  0       1  0  0   1  0 -1   1 -1  0
                       0  1 -1   1  0 -1   0  0 -1       0 -1  1  -1  0  1   0  0  1
                      -1  0  0  -1  1  0  -1  0  1       1  0  0   1 -1  0   1  0 -1
                       0 -1  1   1 -1  0   0 -1  0       0  1 -1  -1  1  0   0  1  0
                       1  0  0   0  0  1   0  1  0      -1  0  0   0  0 -1   0 -1  0
                       0  1 -1   0  0 -1   1  0 -1       0 -1  1   0  0  1  -1  0  1
                      -1  0  1  -1  1  0  -1  0  0       1  0 -1   1 -1  0   1  0  0
                       0 -1  0   1 -1  0   0 -1  1       0  1  0  -1  1  0   0  1 -1
                       1  0 -1   0  0 -1   0  1 -1      -1  0  1   0  0  1   0 -1  1
                       0  1  0   0  0  1   1  0  0       0 -1  0   0  0 -1  -1  0  0
                       1  0 -1   0  1 -1   0  0 -1      -1  0  1   0 -1  1   0  0  1
                       0 -1  0   0 -1  1   1 -1  0       0  1  0   0  1 -1  -1  1  0
                      -1  0  1  -1  0  0  -1  1  0       1  0 -1   1  0  0   1 -1  0
                       0  1  0   1  0  0   0  0  1       0 -1  0  -1  0  0   0  0 -1
                       0  0 -1   0  1 -1   1  0 -1       0  0  1   0 -1  1  -1  0  1
                       1 -1  0   0 -1  1   0 -1  0      -1  1  0   0  1 -1   0  1  0
                       0  0  1   1  0  0   0  1  0       0  0 -1  -1  0  0   0 -1  0
                      -1  1  0  -1  0  0  -1  0  1       1 -1  0   1  0  0   1  0 -1
                       0  0  1   0  1  0   1  0  0       0  0 -1   0 -1  0  -1  0  0
                       1 -1  0   0 -1  0   0 -1  1      -1  1  0   0  1  0   0  1 -1
                       0  0 -1   1  0 -1   0  1 -1       0  0  1  -1  0  1   0 -1  1
                      -1  1  0  -1  0  1  -1  0  0       1 -1  0   1  0 -1   1  0  0
           toldfe      1.00000000E-06 Hartree
           tsmear      5.00000000E-02 Hartree
            typat      1
              wtk1       0.75000    0.25000
              wtk2       0.09375    0.09375    0.09375    0.18750    0.09375    0.09375
                         0.09375    0.18750    0.03125    0.03125
              wtk3       0.02778    0.02778    0.02778    0.05556    0.02778    0.02778
                         0.05556    0.02778    0.05556    0.05556    0.02778    0.02778
                         0.02778    0.05556    0.02778    0.05556    0.05556    0.05556
                         0.02778    0.02778    0.02778    0.02778    0.02778    0.05556
                         0.05556    0.00926    0.00926    0.00926
              wtk4       0.01172    0.01172    0.01172    0.02344    0.01172    0.01172
                         0.02344    0.01172    0.02344    0.02344    0.01172    0.01172
                         0.02344    0.01172    0.02344    0.02344    0.01172    0.02344
                         0.02344    0.02344    0.01172    0.01172    0.01172    0.02344
                         0.01172    0.02344    0.02344    0.02344    0.01172    0.02344
                         0.02344    0.02344    0.02344    0.01172    0.01172    0.01172
                         0.01172    0.01172    0.02344    0.02344    0.01172    0.02344
                         0.02344    0.02344    0.02344    0.02344    0.01172    0.01172
                         0.01172    0.01172
                       outvars : Printing only first  50 k-points.
            znucl       13.00000

================================================================================

 chkinp: Checking input parameters for consistency, jdtset=   1.

 chkinp: Checking input parameters for consistency, jdtset=   2.

 chkinp: Checking input parameters for consistency, jdtset=   3.

 chkinp: Checking input parameters for consistency, jdtset=   4.

================================================================================
== DATASET  1 ==================================================================
-   nproc =    1

 Exchange-correlation functional for the present dataset will be:
  LDA: new Teter (4/93) with spin-polarized option - ixc=1
 Citation for XC functional:
  S. Goedecker, M. Teter, J. Huetter, PRB 54, 1703 (1996)

 Real(R)+Recip(G) space primitive vectors, cartesian coordinates (Bohr,Bohr^-1):
 R(1)=  0.0000000  3.8000000  3.8000000  G(1)= -0.1315789  0.1315789  0.1315789
 R(2)=  3.8000000  0.0000000  3.8000000  G(2)=  0.1315789 -0.1315789  0.1315789
 R(3)=  3.8000000  3.8000000  0.0000000  G(3)=  0.1315789  0.1315789 -0.1315789
 Unit cell volume ucvol=  1.0974400E+02 bohr^3
 Angles (23,13,12)=  6.00000000E+01  6.00000000E+01  6.00000000E+01 degrees

 getcut: wavevector=  0.0000  0.0000  0.0000  ngfft=  15  15  15
         ecut(hartree)=      6.615   => boxcut(ratio)=   2.26154

 getcut : COMMENT -
  Note that boxcut > 2.2 ; recall that boxcut=Gcut(box)/Gcut(sphere) = 2
  is sufficient for exact treatment of convolution.
  Such a large boxcut is a waste : you could raise ecut
  e.g. ecut=    8.458196 Hartrees makes boxcut=2


--- Pseudopotential description ------------------------------------------------
- pspini: atom type   1  psp file is 13al.981214.fhi
- pspatm: opening atomic psp file    13al.981214.fhi
- Aluminum, fhi98PP : Hamann-type, LDA CA PerdewWang, l=2 local
- 13.00000   3.00000    981214                znucl, zion, pspdat
    6    7    2    2       493   0.00000      pspcod,pspxc,lmax,lloc,mmax,r2well
  No XC core correction.
  1.024700          amesh (Hamman grid)
 pspatm: epsatm=    1.36305739
         --- l  ekb(1:nproj) -->
             0    1.768744
             1    0.900554
 pspatm: atomic psp has been read  and splines computed

   4.08917216E+00                                ecore*ucvol(ha*bohr**3)
--------------------------------------------------------------------------------

P newkpt: treating      3 bands with npw=      90 for ikpt=   1 by node    0
P newkpt: treating      3 bands with npw=      89 for ikpt=   2 by node    0

_setup2: Arith. and geom. avg. npw (full set) are      89.750      89.749

================================================================================

=== [ionmov= 2] Broyden-Fletcher-Goldfard-Shanno method (forces)            
================================================================================

--- Iteration: ( 1/10) Internal Cycle: (1/1)
--------------------------------------------------------------------------------

---SELF-CONSISTENT-FIELD CONVERGENCE--------------------------------------------

     iter   Etot(hartree)      deltaE(h)  residm     vres2
 ETOT  1  -2.0976647769159    -2.098E+00 1.024E-03 3.819E-01
 ETOT  2  -2.0979329058481    -2.681E-04 3.236E-10 1.004E-02
 ETOT  3  -2.0979387166807    -5.811E-06 1.050E-07 5.228E-05
 ETOT  4  -2.0979387453312    -2.865E-08 7.314E-10 1.924E-07
 ETOT  5  -2.0979387454056    -7.436E-11 1.449E-12 7.991E-10

 At SCF step    5, etot is converged : 
  for the second time, diff in etot=  7.436E-11 < toldfe=  1.000E-06

 Cartesian components of stress tensor (hartree/bohr^3)
  sigma(1 1)=  4.64978647E-05  sigma(3 2)=  0.00000000E+00
  sigma(2 2)=  4.64978647E-05  sigma(3 1)=  0.00000000E+00
  sigma(3 3)=  4.64978647E-05  sigma(2 1)=  0.00000000E+00


---OUTPUT-----------------------------------------------------------------------

 Cartesian coordinates (xcart) [bohr]
  0.00000000000000E+00  0.00000000000000E+00  0.00000000000000E+00
 Reduced coordinates (xred)
  0.00000000000000E+00  0.00000000000000E+00  0.00000000000000E+00
 Cartesian forces (fcart) [Ha/bohr]; max,rms= 0.00000E+00 0.00000E+00 (free atoms)
 -0.00000000000000E+00 -0.00000000000000E+00 -0.00000000000000E+00
 Reduced forces (fred)
  0.00000000000000E+00  0.00000000000000E+00  0.00000000000000E+00
 Scale of Primitive Cell (acell) [bohr]
  7.60000000000000E+00  7.60000000000000E+00  7.60000000000000E+00
 Real space primitive translations (rprimd) [bohr]
  0.00000000000000E+00  3.80000000000000E+00  3.80000000000000E+00
  3.80000000000000E+00  0.00000000000000E+00  3.80000000000000E+00
  3.80000000000000E+00  3.80000000000000E+00  0.00000000000000E+00
 Unitary Cell Volume (ucvol) [Bohr^3]=  1.09744000000000E+02
 Angles (23,13,12)= [degrees]
  6.00000000000000E+01  6.00000000000000E+01  6.00000000000000E+01
 Lengths [Bohr]
  5.37401153701776E+00  5.37401153701776E+00  5.37401153701776E+00
 Stress tensor in cartesian coordinates (strten) [Ha/bohr^3]
  4.64978646712802E-05  0.00000000000000E+00  0.00000000000000E+00
  0.00000000000000E+00  4.64978646712801E-05  0.00000000000000E+00
  0.00000000000000E+00  0.00000000000000E+00  4.64978646712799E-05
 Total energy (etotal) [Ha]= -2.09793874540559E+00

--- Iteration: ( 2/10) Internal Cycle: (1/1)
--------------------------------------------------------------------------------

---SELF-CONSISTENT-FIELD CONVERGENCE--------------------------------------------

     iter   Etot(hartree)      deltaE(h)  residm     vres2
 ETOT  1  -2.0979574504260    -2.098E+00 2.153E-12 1.594E-05
 ETOT  2  -2.0979574577359    -7.310E-09 1.944E-15 9.906E-07
 ETOT  3  -2.0979574582395    -5.036E-10 7.562E-12 5.972E-10

 At SCF step    3, etot is converged : 
  for the second time, diff in etot=  5.036E-10 < toldfe=  1.000E-06

 Cartesian components of stress tensor (hartree/bohr^3)
  sigma(1 1)=  3.50337004E-05  sigma(3 2)=  0.00000000E+00
  sigma(2 2)=  3.50337004E-05  sigma(3 1)=  0.00000000E+00
  sigma(3 3)=  3.50337004E-05  sigma(2 1)=  0.00000000E+00


---OUTPUT-----------------------------------------------------------------------

 Cartesian coordinates (xcart) [bohr]
  0.00000000000000E+00  0.00000000000000E+00  0.00000000000000E+00
 Reduced coordinates (xred)
  0.00000000000000E+00  0.00000000000000E+00  0.00000000000000E+00
 Cartesian forces (fcart) [Ha/bohr]; max,rms= 0.00000E+00 0.00000E+00 (free atoms)
 -0.00000000000000E+00 -0.00000000000000E+00 -0.00000000000000E+00
 Reduced forces (fred)
  0.00000000000000E+00  0.00000000000000E+00  0.00000000000000E+00
 Scale of Primitive Cell (acell) [bohr]
  7.58939848685495E+00  7.58939848685495E+00  7.58939848685495E+00
 Real space primitive translations (rprimd) [bohr]
  0.00000000000000E+00  3.79469924342747E+00  3.79469924342747E+00
  3.79469924342747E+00  0.00000000000000E+00  3.79469924342747E+00
  3.79469924342747E+00  3.79469924342747E+00  0.00000000000000E+00
 Unitary Cell Volume (ucvol) [Bohr^3]=  1.09285382787536E+02
 Angles (23,13,12)= [degrees]
  6.00000000000000E+01  6.00000000000000E+01  6.00000000000000E+01
 Lengths [Bohr]
  5.36651513518206E+00  5.36651513518206E+00  5.36651513518206E+00
 Stress tensor in cartesian coordinates (strten) [Ha/bohr^3]
  3.50337003585358E-05  0.00000000000000E+00  0.00000000000000E+00
  0.00000000000000E+00  3.50337003585359E-05  0.00000000000000E+00
  0.00000000000000E+00  0.00000000000000E+00  3.50337003585359E-05
 Total energy (etotal) [Ha]= -2.09795745823949E+00

 Difference of energy with previous step (new-old):
           Absolute (Ha)=-1.87128E-05
           Relative     =-8.91959E-06

--- Iteration: ( 3/10) Internal Cycle: (1/1)
--------------------------------------------------------------------------------

---SELF-CONSISTENT-FIELD CONVERGENCE--------------------------------------------

     iter   Etot(hartree)      deltaE(h)  residm     vres2
 ETOT  1  -2.0979806466429    -2.098E+00 2.544E-11 1.452E-04
 ETOT  2  -2.0979807118447    -6.520E-08 1.816E-14 8.967E-06
 ETOT  3  -2.0979807163129    -4.468E-09 6.557E-11 5.451E-09

 At SCF step    3, etot is converged : 
  for the second time, diff in etot=  4.468E-09 < toldfe=  1.000E-06

 Cartesian components of stress tensor (hartree/bohr^3)
  sigma(1 1)= -1.57916195E-06  sigma(3 2)=  0.00000000E+00
  sigma(2 2)= -1.57916195E-06  sigma(3 1)=  0.00000000E+00
  sigma(3 3)= -1.57916195E-06  sigma(2 1)=  0.00000000E+00


---OUTPUT-----------------------------------------------------------------------

 Cartesian coordinates (xcart) [bohr]
  0.00000000000000E+00  0.00000000000000E+00  0.00000000000000E+00
 Reduced coordinates (xred)
  0.00000000000000E+00  0.00000000000000E+00  0.00000000000000E+00
 Cartesian forces (fcart) [Ha/bohr]; max,rms= 0.00000E+00 0.00000E+00 (free atoms)
 -0.00000000000000E+00 -0.00000000000000E+00 -0.00000000000000E+00
 Reduced forces (fred)
  0.00000000000000E+00  0.00000000000000E+00  0.00000000000000E+00
 Scale of Primitive Cell (acell) [bohr]
  7.55754319060354E+00  7.55754319060354E+00  7.55754319060354E+00
 Real space primitive translations (rprimd) [bohr]
  0.00000000000000E+00  3.77877159530177E+00  3.77877159530177E+00
  3.77877159530177E+00  0.00000000000000E+00  3.77877159530177E+00
  3.77877159530177E+00  3.77877159530177E+00  0.00000000000000E+00
 Unitary Cell Volume (ucvol) [Bohr^3]=  1.07915026593775E+02
 Angles (23,13,12)= [degrees]
  6.00000000000000E+01  6.00000000000000E+01  6.00000000000000E+01
 Lengths [Bohr]
  5.34399003918598E+00  5.34399003918598E+00  5.34399003918598E+00
 Stress tensor in cartesian coordinates (strten) [Ha/bohr^3]
 -1.57916194791865E-06  0.00000000000000E+00  0.00000000000000E+00
  0.00000000000000E+00 -1.57916194791843E-06  0.00000000000000E+00
  0.00000000000000E+00  0.00000000000000E+00 -1.57916194791854E-06
 Total energy (etotal) [Ha]= -2.09798071631292E+00

 Difference of energy with previous step (new-old):
           Absolute (Ha)=-2.32581E-05
           Relative     =-1.10860E-05

--- Iteration: ( 4/10) Internal Cycle: (1/1)
--------------------------------------------------------------------------------

---SELF-CONSISTENT-FIELD CONVERGENCE--------------------------------------------

     iter   Etot(hartree)      deltaE(h)  residm     vres2
 ETOT  1  -2.0979807617150    -2.098E+00 3.701E-14 2.827E-07
 ETOT  2  -2.0979807618420    -1.270E-10 3.414E-17 1.752E-08
 ETOT  3  -2.0979807618508    -8.761E-12 1.272E-13 1.018E-11

 At SCF step    3, etot is converged : 
  for the second time, diff in etot=  8.761E-12 < toldfe=  1.000E-06

 Cartesian components of stress tensor (hartree/bohr^3)
  sigma(1 1)=  2.13669733E-08  sigma(3 2)=  0.00000000E+00
  sigma(2 2)=  2.13669733E-08  sigma(3 1)=  0.00000000E+00
  sigma(3 3)=  2.13669733E-08  sigma(2 1)=  0.00000000E+00


---OUTPUT-----------------------------------------------------------------------

 Cartesian coordinates (xcart) [bohr]
  0.00000000000000E+00  0.00000000000000E+00  0.00000000000000E+00
 Reduced coordinates (xred)
  0.00000000000000E+00  0.00000000000000E+00  0.00000000000000E+00
 Cartesian forces (fcart) [Ha/bohr]; max,rms= 0.00000E+00 0.00000E+00 (free atoms)
 -0.00000000000000E+00 -0.00000000000000E+00 -0.00000000000000E+00
 Reduced forces (fred)
  0.00000000000000E+00  0.00000000000000E+00  0.00000000000000E+00
 Scale of Primitive Cell (acell) [bohr]
  7.55890065805717E+00  7.55890065805717E+00  7.55890065805717E+00
 Real space primitive translations (rprimd) [bohr]
  0.00000000000000E+00  3.77945032902859E+00  3.77945032902859E+00
  3.77945032902859E+00  0.00000000000000E+00  3.77945032902859E+00
  3.77945032902859E+00  3.77945032902859E+00  0.00000000000000E+00
 Unitary Cell Volume (ucvol) [Bohr^3]=  1.07973187339914E+02
 Angles (23,13,12)= [degrees]
  6.00000000000000E+01  6.00000000000000E+01  6.00000000000000E+01
 Lengths [Bohr]
  5.34494991362768E+00  5.34494991362768E+00  5.34494991362768E+00
 Stress tensor in cartesian coordinates (strten) [Ha/bohr^3]
  2.13669732646612E-08  0.00000000000000E+00  0.00000000000000E+00
  0.00000000000000E+00  2.13669732644444E-08  0.00000000000000E+00
  0.00000000000000E+00  0.00000000000000E+00  2.13669732647154E-08
 Total energy (etotal) [Ha]= -2.09798076185075E+00

 Difference of energy with previous step (new-old):
           Absolute (Ha)=-4.55378E-08
           Relative     =-2.17056E-08

 At Broyd/MD step   4, gradients are converged : 
  max grad (force/stress) = 2.1367E-06 < tolmxf= 5.0000E-05 ha/bohr (free atoms)

================================================================================

 ----iterations are completed or convergence reached----

 Mean square residual over all n,k,spin=   7.6493E-14; max=  1.2721E-13
  -0.2500  0.5000  0.0000    1  1.27209E-13 kpt; spin; max resid(k); each band:
  1.04E-13 1.04E-13 1.27E-13
  -0.2500  0.0000  0.0000    1  5.52429E-14 kpt; spin; max resid(k); each band:
  3.97E-14 5.52E-14 2.82E-14
 reduced coordinates (array xred) for    1 atoms
       0.000000000000      0.000000000000      0.000000000000
 rms dE/dt=  0.0000E+00; max dE/dt=  0.0000E+00; dE/dt below (all hartree)
    1       0.000000000000      0.000000000000      0.000000000000

 cartesian coordinates (angstrom) at end:
    1      0.00000000000000     0.00000000000000     0.00000000000000

 cartesian forces (hartree/bohr) at end:
    1     -0.00000000000000    -0.00000000000000    -0.00000000000000
 frms,max,avg= 0.0000000E+00 0.0000000E+00   0.000E+00  0.000E+00  0.000E+00 h/b

 cartesian forces (eV/Angstrom) at end:
    1     -0.00000000000000    -0.00000000000000    -0.00000000000000
 frms,max,avg= 0.0000000E+00 0.0000000E+00   0.000E+00  0.000E+00  0.000E+00 e/A
 length scales=  7.558900658057  7.558900658057  7.558900658057 bohr
              =  3.999997950240  3.999997950240  3.999997950240 angstroms
 prteigrs : about to open file tbase4_xo_DS1_EIG
 Fermi (or HOMO) energy (hartree) =   0.26847   Average Vxc (hartree)=  -0.34746
 Eigenvalues (hartree) for nkpt=   2  k points:
 kpt#   1, nband=  3, wtk=  0.75000, kpt= -0.2500  0.5000  0.0000 (reduced coord)
   0.09425   0.25438   0.41908
      occupation numbers for kpt#   1
   2.00003   1.33307   0.00014
 kpt#   2, nband=  3, wtk=  0.25000, kpt= -0.2500  0.0000  0.0000 (reduced coord)
  -0.07038   0.41093   0.68874
      occupation numbers for kpt#   2
   2.00000   0.00030   0.00000
 Total charge density [el/Bohr^3]
,     Maximum=    3.3235E-02  at reduced coord.    0.8000    0.8667    0.8667
,Next maximum=    3.3235E-02  at reduced coord.    0.4667    0.8667    0.8667
,     Minimum=    2.7392E-03  at reduced coord.    0.0000    0.0000    0.0000
,Next minimum=    4.8415E-03  at reduced coord.    0.0667    0.0000    0.0000
,  Integrated=    3.0000E+00

--------------------------------------------------------------------------------
 Components of total free energy (in Hartree) :

    Kinetic energy  =  8.70954147704507E-01
    Hartree energy  =  3.84986046238231E-03
    XC energy       = -8.08433967811649E-01
    Ewald energy    = -2.72948147711403E+00
    PspCore energy  =  3.78721075037676E-02
    Loc. psp. energy=  8.26676841341001E-02
    NL   psp  energy=  4.52588174121221E-01
    >>>>> Internal E= -2.08998347099970E+00

    -kT*entropy     = -7.99729085104610E-03
    >>>>>>>>> Etotal= -2.09798076185075E+00

 Other information on the energy :
    Total energy(eV)= -5.70889598416160E+01 ; Band energy (Ha)=   3.6059686816E-01
--------------------------------------------------------------------------------

 Cartesian components of stress tensor (hartree/bohr^3)
  sigma(1 1)=  2.13669733E-08  sigma(3 2)=  0.00000000E+00
  sigma(2 2)=  2.13669733E-08  sigma(3 1)=  0.00000000E+00
  sigma(3 3)=  2.13669733E-08  sigma(2 1)=  0.00000000E+00

-Cartesian components of stress tensor (GPa)         [Pressure= -6.2864E-04 GPa]
- sigma(1 1)=  6.28637951E-04  sigma(3 2)=  0.00000000E+00
- sigma(2 2)=  6.28637951E-04  sigma(3 1)=  0.00000000E+00
- sigma(3 3)=  6.28637951E-04  sigma(2 1)=  0.00000000E+00

================================================================================
== DATASET  2 ==================================================================
-   nproc =    1

 mkfilename : getwfk/=0, take file _WFK from output of DATASET   1.

 Exchange-correlation functional for the present dataset will be:
  LDA: new Teter (4/93) with spin-polarized option - ixc=1
 Citation for XC functional:
  S. Goedecker, M. Teter, J. Huetter, PRB 54, 1703 (1996)

 Real(R)+Recip(G) space primitive vectors, cartesian coordinates (Bohr,Bohr^-1):
 R(1)=  0.0000000  3.8000000  3.8000000  G(1)= -0.1315789  0.1315789  0.1315789
 R(2)=  3.8000000  0.0000000  3.8000000  G(2)=  0.1315789 -0.1315789  0.1315789
 R(3)=  3.8000000  3.8000000  0.0000000  G(3)=  0.1315789  0.1315789 -0.1315789
 Unit cell volume ucvol=  1.0974400E+02 bohr^3
 Angles (23,13,12)=  6.00000000E+01  6.00000000E+01  6.00000000E+01 degrees

 getcut: wavevector=  0.0000  0.0000  0.0000  ngfft=  15  15  15
         ecut(hartree)=      6.615   => boxcut(ratio)=   2.26154

 getcut : COMMENT -
  Note that boxcut > 2.2 ; recall that boxcut=Gcut(box)/Gcut(sphere) = 2
  is sufficient for exact treatment of convolution.
  Such a large boxcut is a waste : you could raise ecut
  e.g. ecut=    8.458196 Hartrees makes boxcut=2

--------------------------------------------------------------------------------

-inwffil : will read wavefunctions from disk file tbase4_xo_DS1_WFK
- newkpt: read input wf with ikpt,npw=   1      85, make ikpt,npw=   1      85
- newkpt: read input wf with ikpt,npw=   2      87, make ikpt,npw=   2      87
- newkpt: read input wf with ikpt,npw=   3      87, make ikpt,npw=   3      87
- newkpt: read input wf with ikpt,npw=   4      88, make ikpt,npw=   4      88
- newkpt: read input wf with ikpt,npw=   5      89, make ikpt,npw=   5      89
- newkpt: read input wf with ikpt,npw=   6      90, make ikpt,npw=   6      90
- newkpt: read input wf with ikpt,npw=   7      92, make ikpt,npw=   7      92
- newkpt: read input wf with ikpt,npw=   8      92, make ikpt,npw=   8      92
- newkpt: read input wf with ikpt,npw=   9      89, make ikpt,npw=   9      89
- newkpt: read input wf with ikpt,npw=  10      89, make ikpt,npw=  10      89

_setup2: Arith. and geom. avg. npw (full set) are      89.000      88.972

================================================================================

=== [ionmov= 2] Broyden-Fletcher-Goldfard-Shanno method (forces)            
================================================================================

--- Iteration: ( 1/10) Internal Cycle: (1/1)
--------------------------------------------------------------------------------

---SELF-CONSISTENT-FIELD CONVERGENCE--------------------------------------------

     iter   Etot(hartree)      deltaE(h)  residm     vres2
 ETOT  1  -2.0980846505283    -2.098E+00 3.079E-02 1.763E-04
 ETOT  2  -2.0980848307785    -1.803E-07 8.906E-07 1.026E-05
 ETOT  3  -2.0980848377369    -6.958E-09 3.125E-09 5.548E-09

 At SCF step    3, etot is converged : 
  for the second time, diff in etot=  6.958E-09 < toldfe=  1.000E-06

 Cartesian components of stress tensor (hartree/bohr^3)
  sigma(1 1)=  9.69836886E-05  sigma(3 2)=  0.00000000E+00
  sigma(2 2)=  9.69836886E-05  sigma(3 1)=  0.00000000E+00
  sigma(3 3)=  9.69836886E-05  sigma(2 1)=  0.00000000E+00


---OUTPUT-----------------------------------------------------------------------

 Cartesian coordinates (xcart) [bohr]
  0.00000000000000E+00  0.00000000000000E+00  0.00000000000000E+00
 Reduced coordinates (xred)
  0.00000000000000E+00  0.00000000000000E+00  0.00000000000000E+00
 Cartesian forces (fcart) [Ha/bohr]; max,rms= 0.00000E+00 0.00000E+00 (free atoms)
 -0.00000000000000E+00 -0.00000000000000E+00 -0.00000000000000E+00
 Reduced forces (fred)
  0.00000000000000E+00  0.00000000000000E+00  0.00000000000000E+00
 Scale of Primitive Cell (acell) [bohr]
  7.60000000000000E+00  7.60000000000000E+00  7.60000000000000E+00
 Real space primitive translations (rprimd) [bohr]
  0.00000000000000E+00  3.80000000000000E+00  3.80000000000000E+00
  3.80000000000000E+00  0.00000000000000E+00  3.80000000000000E+00
  3.80000000000000E+00  3.80000000000000E+00  0.00000000000000E+00
 Unitary Cell Volume (ucvol) [Bohr^3]=  1.09744000000000E+02
 Angles (23,13,12)= [degrees]
  6.00000000000000E+01  6.00000000000000E+01  6.00000000000000E+01
 Lengths [Bohr]
  5.37401153701776E+00  5.37401153701776E+00  5.37401153701776E+00
 Stress tensor in cartesian coordinates (strten) [Ha/bohr^3]
  9.69836885832167E-05  0.00000000000000E+00  0.00000000000000E+00
  0.00000000000000E+00  9.69836885832167E-05  0.00000000000000E+00
  0.00000000000000E+00  0.00000000000000E+00  9.69836885832165E-05
 Total energy (etotal) [Ha]= -2.09808483773691E+00

--- Iteration: ( 2/10) Internal Cycle: (1/1)
--------------------------------------------------------------------------------

---SELF-CONSISTENT-FIELD CONVERGENCE--------------------------------------------

     iter   Etot(hartree)      deltaE(h)  residm     vres2
 ETOT  1  -2.0981675614304    -2.098E+00 4.053E-08 7.543E-05
 ETOT  2  -2.0981675951035    -3.367E-08 1.120E-13 4.639E-06
 ETOT  3  -2.0981675974394    -2.336E-09 4.878E-11 3.604E-09

 At SCF step    3, etot is converged : 
  for the second time, diff in etot=  2.336E-09 < toldfe=  1.000E-06

 Cartesian components of stress tensor (hartree/bohr^3)
  sigma(1 1)=  7.61857278E-05  sigma(3 2)=  0.00000000E+00
  sigma(2 2)=  7.61857278E-05  sigma(3 1)=  0.00000000E+00
  sigma(3 3)=  7.61857278E-05  sigma(2 1)=  0.00000000E+00


---OUTPUT-----------------------------------------------------------------------

 Cartesian coordinates (xcart) [bohr]
  0.00000000000000E+00  0.00000000000000E+00  0.00000000000000E+00
 Reduced coordinates (xred)
  0.00000000000000E+00  0.00000000000000E+00  0.00000000000000E+00
 Cartesian forces (fcart) [Ha/bohr]; max,rms= 0.00000E+00 0.00000E+00 (free atoms)
 -0.00000000000000E+00 -0.00000000000000E+00 -0.00000000000000E+00
 Reduced forces (fred)
  0.00000000000000E+00  0.00000000000000E+00  0.00000000000000E+00
 Scale of Primitive Cell (acell) [bohr]
  7.57788771900303E+00  7.57788771900303E+00  7.57788771900303E+00
 Real space primitive translations (rprimd) [bohr]
  0.00000000000000E+00  3.78894385950151E+00  3.78894385950151E+00
  3.78894385950151E+00  0.00000000000000E+00  3.78894385950151E+00
  3.78894385950151E+00  3.78894385950151E+00  0.00000000000000E+00
 Unitary Cell Volume (ucvol) [Bohr^3]=  1.08788880316179E+02
 Angles (23,13,12)= [degrees]
  6.00000000000000E+01  6.00000000000000E+01  6.00000000000000E+01
 Lengths [Bohr]
  5.35837579317730E+00  5.35837579317730E+00  5.35837579317730E+00
 Stress tensor in cartesian coordinates (strten) [Ha/bohr^3]
  7.61857277586434E-05  0.00000000000000E+00  0.00000000000000E+00
  0.00000000000000E+00  7.61857277586434E-05  0.00000000000000E+00
  0.00000000000000E+00  0.00000000000000E+00  7.61857277586432E-05
 Total energy (etotal) [Ha]= -2.09816759743936E+00

 Difference of energy with previous step (new-old):
           Absolute (Ha)=-8.27597E-05
           Relative     =-3.94446E-05

--- Iteration: ( 3/10) Internal Cycle: (1/1)
--------------------------------------------------------------------------------

---SELF-CONSISTENT-FIELD CONVERGENCE--------------------------------------------

     iter   Etot(hartree)      deltaE(h)  residm     vres2
 ETOT  1  -2.0982854570790    -2.098E+00 1.283E-06 9.329E-04
 ETOT  2  -2.0982858552246    -3.981E-07 8.177E-13 5.650E-05
 ETOT  3  -2.0982858822995    -2.707E-08 5.478E-10 4.450E-08

 At SCF step    3, etot is converged : 
  for the second time, diff in etot=  2.707E-08 < toldfe=  1.000E-06

 Cartesian components of stress tensor (hartree/bohr^3)
  sigma(1 1)= -8.30775905E-06  sigma(3 2)=  0.00000000E+00
  sigma(2 2)= -8.30775905E-06  sigma(3 1)=  0.00000000E+00
  sigma(3 3)= -8.30775905E-06  sigma(2 1)=  0.00000000E+00


---OUTPUT-----------------------------------------------------------------------

 Cartesian coordinates (xcart) [bohr]
  0.00000000000000E+00  0.00000000000000E+00  0.00000000000000E+00
 Reduced coordinates (xred)
  0.00000000000000E+00  0.00000000000000E+00  0.00000000000000E+00
 Cartesian forces (fcart) [Ha/bohr]; max,rms= 0.00000E+00 0.00000E+00 (free atoms)
 -0.00000000000000E+00 -0.00000000000000E+00 -0.00000000000000E+00
 Reduced forces (fred)
  0.00000000000000E+00  0.00000000000000E+00  0.00000000000000E+00
 Scale of Primitive Cell (acell) [bohr]
  7.50007321053935E+00  7.50007321053935E+00  7.50007321053935E+00
 Real space primitive translations (rprimd) [bohr]
  0.00000000000000E+00  3.75003660526967E+00  3.75003660526967E+00
  3.75003660526967E+00  0.00000000000000E+00  3.75003660526967E+00
  3.75003660526967E+00  3.75003660526967E+00  0.00000000000000E+00
 Unitary Cell Volume (ucvol) [Bohr^3]=  1.05471838599778E+02
 Angles (23,13,12)= [degrees]
  6.00000000000000E+01  6.00000000000000E+01  6.00000000000000E+01
 Lengths [Bohr]
  5.30335262656793E+00  5.30335262656793E+00  5.30335262656793E+00
 Stress tensor in cartesian coordinates (strten) [Ha/bohr^3]
 -8.30775904693217E-06  0.00000000000000E+00  0.00000000000000E+00
  0.00000000000000E+00 -8.30775904693228E-06  0.00000000000000E+00
  0.00000000000000E+00  0.00000000000000E+00 -8.30775904693234E-06
 Total energy (etotal) [Ha]= -2.09828588229948E+00

 Difference of energy with previous step (new-old):
           Absolute (Ha)=-1.18285E-04
           Relative     =-5.63737E-05

--- Iteration: ( 4/10) Internal Cycle: (1/1)
--------------------------------------------------------------------------------

---SELF-CONSISTENT-FIELD CONVERGENCE--------------------------------------------

     iter   Etot(hartree)      deltaE(h)  residm     vres2
 ETOT  1  -2.0982870933094    -2.098E+00 7.661E-11 9.779E-06
 ETOT  2  -2.0982870975302    -4.221E-09 9.205E-15 5.968E-07
 ETOT  3  -2.0982870978183    -2.881E-10 5.903E-12 4.262E-10

 At SCF step    3, etot is converged : 
  for the second time, diff in etot=  2.881E-10 < toldfe=  1.000E-06

 Cartesian components of stress tensor (hartree/bohr^3)
  sigma(1 1)=  5.81836167E-07  sigma(3 2)=  0.00000000E+00
  sigma(2 2)=  5.81836167E-07  sigma(3 1)=  0.00000000E+00
  sigma(3 3)=  5.81836167E-07  sigma(2 1)=  0.00000000E+00


---OUTPUT-----------------------------------------------------------------------

 Cartesian coordinates (xcart) [bohr]
  0.00000000000000E+00  0.00000000000000E+00  0.00000000000000E+00
 Reduced coordinates (xred)
  0.00000000000000E+00  0.00000000000000E+00  0.00000000000000E+00
 Cartesian forces (fcart) [Ha/bohr]; max,rms= 0.00000E+00 0.00000E+00 (free atoms)
 -0.00000000000000E+00 -0.00000000000000E+00 -0.00000000000000E+00
 Reduced forces (fred)
  0.00000000000000E+00  0.00000000000000E+00  0.00000000000000E+00
 Scale of Primitive Cell (acell) [bohr]
  7.50751328367387E+00  7.50751328367387E+00  7.50751328367387E+00
 Real space primitive translations (rprimd) [bohr]
  0.00000000000000E+00  3.75375664183694E+00  3.75375664183694E+00
  3.75375664183694E+00  0.00000000000000E+00  3.75375664183694E+00
  3.75375664183694E+00  3.75375664183694E+00  0.00000000000000E+00
 Unitary Cell Volume (ucvol) [Bohr^3]=  1.05786034289074E+02
 Angles (23,13,12)= [degrees]
  6.00000000000000E+01  6.00000000000000E+01  6.00000000000000E+01
 Lengths [Bohr]
  5.30861355273388E+00  5.30861355273388E+00  5.30861355273388E+00
 Stress tensor in cartesian coordinates (strten) [Ha/bohr^3]
  5.81836167152323E-07  0.00000000000000E+00  0.00000000000000E+00
  0.00000000000000E+00  5.81836167152323E-07  0.00000000000000E+00
  0.00000000000000E+00  0.00000000000000E+00  5.81836167152649E-07
 Total energy (etotal) [Ha]= -2.09828709781833E+00

 Difference of energy with previous step (new-old):
           Absolute (Ha)=-1.21552E-06
           Relative     =-5.79291E-07

--- Iteration: ( 5/10) Internal Cycle: (1/1)
--------------------------------------------------------------------------------

---SELF-CONSISTENT-FIELD CONVERGENCE--------------------------------------------

     iter   Etot(hartree)      deltaE(h)  residm     vres2
 ETOT  1  -2.0982871038459    -2.098E+00 3.454E-13 4.170E-08
 ETOT  2  -2.0982871038638    -1.795E-11 1.086E-16 2.545E-09
 ETOT  3  -2.0982871038650    -1.228E-12 2.514E-14 1.824E-12

 At SCF step    3, etot is converged : 
  for the second time, diff in etot=  1.228E-12 < toldfe=  1.000E-06

 Cartesian components of stress tensor (hartree/bohr^3)
  sigma(1 1)=  1.46040334E-09  sigma(3 2)=  0.00000000E+00
  sigma(2 2)=  1.46040334E-09  sigma(3 1)=  0.00000000E+00
  sigma(3 3)=  1.46040334E-09  sigma(2 1)=  0.00000000E+00


---OUTPUT-----------------------------------------------------------------------

 Cartesian coordinates (xcart) [bohr]
  0.00000000000000E+00  0.00000000000000E+00  0.00000000000000E+00
 Reduced coordinates (xred)
  0.00000000000000E+00  0.00000000000000E+00  0.00000000000000E+00
 Cartesian forces (fcart) [Ha/bohr]; max,rms= 0.00000E+00 0.00000E+00 (free atoms)
 -0.00000000000000E+00 -0.00000000000000E+00 -0.00000000000000E+00
 Reduced forces (fred)
  0.00000000000000E+00  0.00000000000000E+00  0.00000000000000E+00
 Scale of Primitive Cell (acell) [bohr]
  7.50702496528036E+00  7.50702496528036E+00  7.50702496528036E+00
 Real space primitive translations (rprimd) [bohr]
  0.00000000000000E+00  3.75351248264018E+00  3.75351248264018E+00
  3.75351248264018E+00  0.00000000000000E+00  3.75351248264018E+00
  3.75351248264018E+00  3.75351248264018E+00  0.00000000000000E+00
 Unitary Cell Volume (ucvol) [Bohr^3]=  1.05765393403958E+02
 Angles (23,13,12)= [degrees]
  6.00000000000000E+01  6.00000000000000E+01  6.00000000000000E+01
 Lengths [Bohr]
  5.30826825948645E+00  5.30826825948645E+00  5.30826825948645E+00
 Stress tensor in cartesian coordinates (strten) [Ha/bohr^3]
  1.46040334415409E-09  0.00000000000000E+00  0.00000000000000E+00
  0.00000000000000E+00  1.46040334404567E-09  0.00000000000000E+00
  0.00000000000000E+00  0.00000000000000E+00  1.46040334393725E-09
 Total energy (etotal) [Ha]= -2.09828710386504E+00

 Difference of energy with previous step (new-old):
           Absolute (Ha)=-6.04672E-09
           Relative     =-2.88174E-09

 At Broyd/MD step   5, gradients are converged : 
  max grad (force/stress) = 1.4604E-07 < tolmxf= 5.0000E-05 ha/bohr (free atoms)

================================================================================

 ----iterations are completed or convergence reached----

 Mean square residual over all n,k,spin=   1.1485E-14; max=  2.5137E-14
  -0.1250 -0.2500  0.0000    1  4.66764E-15 kpt; spin; max resid(k); each band:
  3.47E-15 4.67E-15 4.58E-15
  -0.1250  0.5000  0.0000    1  1.88015E-14 kpt; spin; max resid(k); each band:
  1.28E-14 1.33E-14 1.88E-14
  -0.2500 -0.3750  0.0000    1  1.66782E-14 kpt; spin; max resid(k); each band:
  1.09E-14 6.96E-15 1.67E-14
  -0.1250 -0.3750  0.1250    1  2.51373E-14 kpt; spin; max resid(k); each band:
  1.13E-14 1.39E-14 2.51E-14
  -0.1250  0.2500  0.0000    1  1.64037E-14 kpt; spin; max resid(k); each band:
  1.17E-14 1.44E-14 1.64E-14
  -0.2500  0.3750  0.0000    1  1.91248E-14 kpt; spin; max resid(k); each band:
  1.26E-14 1.64E-14 1.91E-14
  -0.3750  0.5000  0.0000    1  1.62572E-14 kpt; spin; max resid(k); each band:
  1.21E-14 1.63E-14 1.18E-14
  -0.2500  0.5000  0.1250    1  1.73538E-14 kpt; spin; max resid(k); each band:
  1.06E-14 8.49E-15 1.74E-14
  -0.1250  0.0000  0.0000    1  2.99356E-15 kpt; spin; max resid(k); each band:
  2.79E-15 2.99E-15 1.56E-15
  -0.3750  0.0000  0.0000    1  1.40157E-14 kpt; spin; max resid(k); each band:
  6.50E-15 6.99E-15 1.40E-14
 reduced coordinates (array xred) for    1 atoms
       0.000000000000      0.000000000000      0.000000000000
 rms dE/dt=  0.0000E+00; max dE/dt=  0.0000E+00; dE/dt below (all hartree)
    1       0.000000000000      0.000000000000      0.000000000000

 cartesian coordinates (angstrom) at end:
    1      0.00000000000000     0.00000000000000     0.00000000000000

 cartesian forces (hartree/bohr) at end:
    1     -0.00000000000000    -0.00000000000000    -0.00000000000000
 frms,max,avg= 0.0000000E+00 0.0000000E+00   0.000E+00  0.000E+00  0.000E+00 h/b

 cartesian forces (eV/Angstrom) at end:
    1     -0.00000000000000    -0.00000000000000    -0.00000000000000
 frms,max,avg= 0.0000000E+00 0.0000000E+00   0.000E+00  0.000E+00  0.000E+00 e/A
 length scales=  7.507024965280  7.507024965280  7.507024965280 bohr
              =  3.972546515943  3.972546515943  3.972546515943 angstroms
 prteigrs : about to open file tbase4_xo_DS2_EIG
 Fermi (or HOMO) energy (hartree) =   0.29229   Average Vxc (hartree)=  -0.34959
 Eigenvalues (hartree) for nkpt=  10  k points:
 kpt#   1, nband=  3, wtk=  0.09375, kpt= -0.1250 -0.2500  0.0000 (reduced coord)
  -0.07249   0.49038   0.62412
      occupation numbers for kpt#   1
   2.00000   0.00000   0.00000
 kpt#   2, nband=  3, wtk=  0.09375, kpt= -0.1250  0.5000  0.0000 (reduced coord)
   0.09456   0.17722   0.57713
      occupation numbers for kpt#   2
   2.00000   2.01301   0.00000
 kpt#   3, nband=  3, wtk=  0.09375, kpt= -0.2500 -0.3750  0.0000 (reduced coord)
   0.01177   0.41167   0.50140
      occupation numbers for kpt#   3
   2.00000   0.00176   0.00000
 kpt#   4, nband=  3, wtk=  0.18750, kpt= -0.1250 -0.3750  0.1250 (reduced coord)
   0.05343   0.29529   0.46360
      occupation numbers for kpt#   4
   2.00000   0.74138   0.00001
 kpt#   5, nband=  3, wtk=  0.09375, kpt= -0.1250  0.2500  0.0000 (reduced coord)
  -0.03015   0.37464   0.54040
      occupation numbers for kpt#   5
   2.00000   0.00486   0.00000
 kpt#   6, nband=  3, wtk=  0.09375, kpt= -0.2500  0.3750  0.0000 (reduced coord)
   0.13537   0.21567   0.38673
      occupation numbers for kpt#   6
   2.00024   2.10852   0.00500
 kpt#   7, nband=  3, wtk=  0.09375, kpt= -0.3750  0.5000  0.0000 (reduced coord)
   0.13405   0.30473   0.37402
      occupation numbers for kpt#   7
   2.00021   0.46198   0.00477
 kpt#   8, nband=  3, wtk=  0.18750, kpt= -0.2500  0.5000  0.1250 (reduced coord)
   0.17426   0.25501   0.34586
      occupation numbers for kpt#   8
   2.01035   1.95984   0.00327
 kpt#   9, nband=  3, wtk=  0.03125, kpt= -0.1250  0.0000  0.0000 (reduced coord)
  -0.11517   0.60439   0.73132
      occupation numbers for kpt#   9
   2.00000   0.00000   0.00000
 kpt#  10, nband=  3, wtk=  0.03125, kpt= -0.3750  0.0000  0.0000 (reduced coord)
   0.01181   0.25769   0.69841
      occupation numbers for kpt#  10
   2.00000   1.90988   0.00000
 Total charge density [el/Bohr^3]
,     Maximum=    3.4062E-02  at reduced coord.    0.8000    0.8667    0.8667
,Next maximum=    3.4062E-02  at reduced coord.    0.4667    0.8667    0.8667
,     Minimum=    2.6452E-03  at reduced coord.    0.0000    0.0000    0.0000
,Next minimum=    4.7214E-03  at reduced coord.    0.0667    0.0000    0.0000
,  Integrated=    3.0000E+00

--------------------------------------------------------------------------------
 Components of total free energy (in Hartree) :

    Kinetic energy  =  8.75807506689011E-01
    Hartree energy  =  4.20236790650355E-03
    XC energy       = -8.13718985286812E-01
    Ewald energy    = -2.74834297593702E+00
    PspCore energy  =  3.86626667462350E-02
    Loc. psp. energy=  9.56059157068778E-02
    NL   psp  energy=  4.51121345104929E-01
    >>>>> Internal E= -2.09666215907028E+00

    -kT*entropy     = -1.62494479476594E-03
    >>>>>>>>> Etotal= -2.09828710386504E+00

 Other information on the energy :
    Total energy(eV)= -5.70972958317594E+01 ; Band energy (Ha)=   3.7068942970E-01
--------------------------------------------------------------------------------

 Cartesian components of stress tensor (hartree/bohr^3)
  sigma(1 1)=  1.46040334E-09  sigma(3 2)=  0.00000000E+00
  sigma(2 2)=  1.46040334E-09  sigma(3 1)=  0.00000000E+00
  sigma(3 3)=  1.46040334E-09  sigma(2 1)=  0.00000000E+00

-Cartesian components of stress tensor (GPa)         [Pressure= -4.2967E-05 GPa]
- sigma(1 1)=  4.29665426E-05  sigma(3 2)=  0.00000000E+00
- sigma(2 2)=  4.29665426E-05  sigma(3 1)=  0.00000000E+00
- sigma(3 3)=  4.29665426E-05  sigma(2 1)=  0.00000000E+00

================================================================================
== DATASET  3 ==================================================================
-   nproc =    1

 mkfilename : getwfk/=0, take file _WFK from output of DATASET   2.

 Exchange-correlation functional for the present dataset will be:
  LDA: new Teter (4/93) with spin-polarized option - ixc=1
 Citation for XC functional:
  S. Goedecker, M. Teter, J. Huetter, PRB 54, 1703 (1996)

 Real(R)+Recip(G) space primitive vectors, cartesian coordinates (Bohr,Bohr^-1):
 R(1)=  0.0000000  3.8000000  3.8000000  G(1)= -0.1315789  0.1315789  0.1315789
 R(2)=  3.8000000  0.0000000  3.8000000  G(2)=  0.1315789 -0.1315789  0.1315789
 R(3)=  3.8000000  3.8000000  0.0000000  G(3)=  0.1315789  0.1315789 -0.1315789
 Unit cell volume ucvol=  1.0974400E+02 bohr^3
 Angles (23,13,12)=  6.00000000E+01  6.00000000E+01  6.00000000E+01 degrees

 getcut: wavevector=  0.0000  0.0000  0.0000  ngfft=  15  15  15
         ecut(hartree)=      6.615   => boxcut(ratio)=   2.26154

 getcut : COMMENT -
  Note that boxcut > 2.2 ; recall that boxcut=Gcut(box)/Gcut(sphere) = 2
  is sufficient for exact treatment of convolution.
  Such a large boxcut is a waste : you could raise ecut
  e.g. ecut=    8.458196 Hartrees makes boxcut=2

--------------------------------------------------------------------------------

-inwffil : will read wavefunctions from disk file tbase4_xo_DS2_WFK
- newkpt: read input wf with ikpt,npw=   1      85, make ikpt,npw=   1      85
- newkpt: read input wf with ikpt,npw=   2      87, make ikpt,npw=   2      87
- newkpt: read input wf with ikpt,npw=   3      87, make ikpt,npw=   3      87
- newkpt: read input wf with ikpt,npw=   4      86, make ikpt,npw=   4      86
- newkpt: read input wf with ikpt,npw=   5      86, make ikpt,npw=   5      86
- newkpt: read input wf with ikpt,npw=   6      87, make ikpt,npw=   6      87
- newkpt: read input wf with ikpt,npw=   7      87, make ikpt,npw=   7      87
- newkpt: read input wf with ikpt,npw=   8      87, make ikpt,npw=   8      87
- newkpt: read input wf with ikpt,npw=   9      88, make ikpt,npw=   9      88
- newkpt: read input wf with ikpt,npw=  10      89, make ikpt,npw=  10      89
- newkpt: read input wf with ikpt,npw=  11      88, make ikpt,npw=  11      88
- newkpt: read input wf with ikpt,npw=  12      91, make ikpt,npw=  12      91
- newkpt: read input wf with ikpt,npw=  13      90, make ikpt,npw=  13      90
- newkpt: read input wf with ikpt,npw=  14      90, make ikpt,npw=  14      90
- newkpt: read input wf with ikpt,npw=  15      88, make ikpt,npw=  15      88
- newkpt: read input wf with ikpt,npw=  16      90, make ikpt,npw=  16      90
- newkpt: read input wf with ikpt,npw=  17      90, make ikpt,npw=  17      90
- newkpt: read input wf with ikpt,npw=  18      93, make ikpt,npw=  18      93
- newkpt: read input wf with ikpt,npw=  19      89, make ikpt,npw=  19      89
- newkpt: read input wf with ikpt,npw=  20      89, make ikpt,npw=  20      89
- newkpt: read input wf with ikpt,npw=  21      90, make ikpt,npw=  21      90
- newkpt: read input wf with ikpt,npw=  22      94, make ikpt,npw=  22      94
- newkpt: read input wf with ikpt,npw=  23      92, make ikpt,npw=  23      92
- newkpt: read input wf with ikpt,npw=  24      94, make ikpt,npw=  24      94
- newkpt: read input wf with ikpt,npw=  25      92, make ikpt,npw=  25      92
- newkpt: read input wf with ikpt,npw=  26      89, make ikpt,npw=  26      89
- newkpt: read input wf with ikpt,npw=  27      89, make ikpt,npw=  27      89
- newkpt: read input wf with ikpt,npw=  28      89, make ikpt,npw=  28      89

_setup2: Arith. and geom. avg. npw (full set) are      89.361      89.328

================================================================================

=== [ionmov= 2] Broyden-Fletcher-Goldfard-Shanno method (forces)            
================================================================================

--- Iteration: ( 1/10) Internal Cycle: (1/1)
--------------------------------------------------------------------------------

---SELF-CONSISTENT-FIELD CONVERGENCE--------------------------------------------

     iter   Etot(hartree)      deltaE(h)  residm     vres2
 ETOT  1  -2.0983307444550    -2.098E+00 1.789E-03 1.165E-03
 ETOT  2  -2.0983313974568    -6.530E-07 2.537E-09 6.943E-05
 ETOT  3  -2.0983314413694    -4.391E-08 2.118E-09 7.512E-08

 At SCF step    3, etot is converged : 
  for the second time, diff in etot=  4.391E-08 < toldfe=  1.000E-06

 Cartesian components of stress tensor (hartree/bohr^3)
  sigma(1 1)=  1.02680231E-04  sigma(3 2)=  0.00000000E+00
  sigma(2 2)=  1.02680231E-04  sigma(3 1)=  0.00000000E+00
  sigma(3 3)=  1.02680231E-04  sigma(2 1)=  0.00000000E+00


---OUTPUT-----------------------------------------------------------------------

 Cartesian coordinates (xcart) [bohr]
  0.00000000000000E+00  0.00000000000000E+00  0.00000000000000E+00
 Reduced coordinates (xred)
  0.00000000000000E+00  0.00000000000000E+00  0.00000000000000E+00
 Cartesian forces (fcart) [Ha/bohr]; max,rms= 0.00000E+00 0.00000E+00 (free atoms)
 -0.00000000000000E+00 -0.00000000000000E+00 -0.00000000000000E+00
 Reduced forces (fred)
  0.00000000000000E+00  0.00000000000000E+00  0.00000000000000E+00
 Scale of Primitive Cell (acell) [bohr]
  7.60000000000000E+00  7.60000000000000E+00  7.60000000000000E+00
 Real space primitive translations (rprimd) [bohr]
  0.00000000000000E+00  3.80000000000000E+00  3.80000000000000E+00
  3.80000000000000E+00  0.00000000000000E+00  3.80000000000000E+00
  3.80000000000000E+00  3.80000000000000E+00  0.00000000000000E+00
 Unitary Cell Volume (ucvol) [Bohr^3]=  1.09744000000000E+02
 Angles (23,13,12)= [degrees]
  6.00000000000000E+01  6.00000000000000E+01  6.00000000000000E+01
 Lengths [Bohr]
  5.37401153701776E+00  5.37401153701776E+00  5.37401153701776E+00
 Stress tensor in cartesian coordinates (strten) [Ha/bohr^3]
  1.02680230826286E-04  0.00000000000000E+00  0.00000000000000E+00
  0.00000000000000E+00  1.02680230826285E-04  0.00000000000000E+00
  0.00000000000000E+00  0.00000000000000E+00  1.02680230826285E-04
 Total energy (etotal) [Ha]= -2.09833144136935E+00

--- Iteration: ( 2/10) Internal Cycle: (1/1)
--------------------------------------------------------------------------------

---SELF-CONSISTENT-FIELD CONVERGENCE--------------------------------------------

     iter   Etot(hartree)      deltaE(h)  residm     vres2
 ETOT  1  -2.0984239694003    -2.098E+00 2.129E-07 8.724E-05
 ETOT  2  -2.0984240079380    -3.854E-08 2.955E-11 5.407E-06
 ETOT  3  -2.0984240106552    -2.717E-09 8.411E-11 3.684E-09

 At SCF step    3, etot is converged : 
  for the second time, diff in etot=  2.717E-09 < toldfe=  1.000E-06

 Cartesian components of stress tensor (hartree/bohr^3)
  sigma(1 1)=  8.01971007E-05  sigma(3 2)=  0.00000000E+00
  sigma(2 2)=  8.01971007E-05  sigma(3 1)=  0.00000000E+00
  sigma(3 3)=  8.01971007E-05  sigma(2 1)=  0.00000000E+00


---OUTPUT-----------------------------------------------------------------------

 Cartesian coordinates (xcart) [bohr]
  0.00000000000000E+00  0.00000000000000E+00  0.00000000000000E+00
 Reduced coordinates (xred)
  0.00000000000000E+00  0.00000000000000E+00  0.00000000000000E+00
 Cartesian forces (fcart) [Ha/bohr]; max,rms= 0.00000E+00 0.00000E+00 (free atoms)
 -0.00000000000000E+00 -0.00000000000000E+00 -0.00000000000000E+00
 Reduced forces (fred)
  0.00000000000000E+00  0.00000000000000E+00  0.00000000000000E+00
 Scale of Primitive Cell (acell) [bohr]
  7.57658890737161E+00  7.57658890737161E+00  7.57658890737161E+00
 Real space primitive translations (rprimd) [bohr]
  0.00000000000000E+00  3.78829445368580E+00  3.78829445368580E+00
  3.78829445368580E+00  0.00000000000000E+00  3.78829445368580E+00
  3.78829445368580E+00  3.78829445368580E+00  0.00000000000000E+00
 Unitary Cell Volume (ucvol) [Bohr^3]=  1.08732952311325E+02
 Angles (23,13,12)= [degrees]
  6.00000000000000E+01  6.00000000000000E+01  6.00000000000000E+01
 Lengths [Bohr]
  5.35745739466524E+00  5.35745739466524E+00  5.35745739466524E+00
 Stress tensor in cartesian coordinates (strten) [Ha/bohr^3]
  8.01971007460511E-05  0.00000000000000E+00  0.00000000000000E+00
  0.00000000000000E+00  8.01971007460511E-05  0.00000000000000E+00
  0.00000000000000E+00  0.00000000000000E+00  8.01971007460512E-05
 Total energy (etotal) [Ha]= -2.09842401065519E+00

 Difference of energy with previous step (new-old):
           Absolute (Ha)=-9.25693E-05
           Relative     =-4.41147E-05

--- Iteration: ( 3/10) Internal Cycle: (1/1)
--------------------------------------------------------------------------------

---SELF-CONSISTENT-FIELD CONVERGENCE--------------------------------------------

     iter   Etot(hartree)      deltaE(h)  residm     vres2
 ETOT  1  -2.0985552896208    -2.099E+00 4.546E-02 1.023E-03
 ETOT  2  -2.0985557191207    -4.295E-07 2.486E-09 6.244E-05
 ETOT  3  -2.0985557489151    -2.979E-08 9.310E-10 4.282E-08

 At SCF step    3, etot is converged : 
  for the second time, diff in etot=  2.979E-08 < toldfe=  1.000E-06

 Cartesian components of stress tensor (hartree/bohr^3)
  sigma(1 1)= -5.47515357E-06  sigma(3 2)=  0.00000000E+00
  sigma(2 2)= -5.47515357E-06  sigma(3 1)=  0.00000000E+00
  sigma(3 3)= -5.47515357E-06  sigma(2 1)=  0.00000000E+00


---OUTPUT-----------------------------------------------------------------------

 Cartesian coordinates (xcart) [bohr]
  0.00000000000000E+00  0.00000000000000E+00  0.00000000000000E+00
 Reduced coordinates (xred)
  0.00000000000000E+00  0.00000000000000E+00  0.00000000000000E+00
 Cartesian forces (fcart) [Ha/bohr]; max,rms= 0.00000E+00 0.00000E+00 (free atoms)
 -0.00000000000000E+00 -0.00000000000000E+00 -0.00000000000000E+00
 Reduced forces (fred)
  0.00000000000000E+00  0.00000000000000E+00  0.00000000000000E+00
 Scale of Primitive Cell (acell) [bohr]
  7.49648352224204E+00  7.49648352224204E+00  7.49648352224204E+00
 Real space primitive translations (rprimd) [bohr]
  0.00000000000000E+00  3.74824176112102E+00  3.74824176112102E+00
  3.74824176112102E+00  0.00000000000000E+00  3.74824176112102E+00
  3.74824176112102E+00  3.74824176112102E+00  0.00000000000000E+00
 Unitary Cell Volume (ucvol) [Bohr^3]=  1.05320468140304E+02
 Angles (23,13,12)= [degrees]
  6.00000000000000E+01  6.00000000000000E+01  6.00000000000000E+01
 Lengths [Bohr]
  5.30081433363056E+00  5.30081433363056E+00  5.30081433363056E+00
 Stress tensor in cartesian coordinates (strten) [Ha/bohr^3]
 -5.47515356691522E-06  0.00000000000000E+00  0.00000000000000E+00
  0.00000000000000E+00 -5.47515356691533E-06  0.00000000000000E+00
  0.00000000000000E+00  0.00000000000000E+00 -5.47515356691538E-06
 Total energy (etotal) [Ha]= -2.09855574891509E+00

 Difference of energy with previous step (new-old):
           Absolute (Ha)=-1.31738E-04
           Relative     =-6.27776E-05

--- Iteration: ( 4/10) Internal Cycle: (1/1)
--------------------------------------------------------------------------------

---SELF-CONSISTENT-FIELD CONVERGENCE--------------------------------------------

     iter   Etot(hartree)      deltaE(h)  residm     vres2
 ETOT  1  -2.0985563090377    -2.099E+00 3.821E-09 4.531E-06
 ETOT  2  -2.0985563109682    -1.930E-09 2.311E-13 2.783E-07
 ETOT  3  -2.0985563111021    -1.339E-10 4.093E-12 1.686E-10

 At SCF step    3, etot is converged : 
  for the second time, diff in etot=  1.339E-10 < toldfe=  1.000E-06

 Cartesian components of stress tensor (hartree/bohr^3)
  sigma(1 1)=  1.31690802E-07  sigma(3 2)=  0.00000000E+00
  sigma(2 2)=  1.31690802E-07  sigma(3 1)=  0.00000000E+00
  sigma(3 3)=  1.31690802E-07  sigma(2 1)=  0.00000000E+00


---OUTPUT-----------------------------------------------------------------------

 Cartesian coordinates (xcart) [bohr]
  0.00000000000000E+00  0.00000000000000E+00  0.00000000000000E+00
 Reduced coordinates (xred)
  0.00000000000000E+00  0.00000000000000E+00  0.00000000000000E+00
 Cartesian forces (fcart) [Ha/bohr]; max,rms= 0.00000E+00 0.00000E+00 (free atoms)
 -0.00000000000000E+00 -0.00000000000000E+00 -0.00000000000000E+00
 Reduced forces (fred)
  0.00000000000000E+00  0.00000000000000E+00  0.00000000000000E+00
 Scale of Primitive Cell (acell) [bohr]
  7.50145220606610E+00  7.50145220606610E+00  7.50145220606610E+00
 Real space primitive translations (rprimd) [bohr]
  0.00000000000000E+00  3.75072610303305E+00  3.75072610303305E+00
  3.75072610303305E+00  0.00000000000000E+00  3.75072610303305E+00
  3.75072610303305E+00  3.75072610303305E+00  0.00000000000000E+00
 Unitary Cell Volume (ucvol) [Bohr^3]=  1.05530026806756E+02
 Angles (23,13,12)= [degrees]
  6.00000000000000E+01  6.00000000000000E+01  6.00000000000000E+01
 Lengths [Bohr]
  5.30432772365613E+00  5.30432772365613E+00  5.30432772365613E+00
 Stress tensor in cartesian coordinates (strten) [Ha/bohr^3]
  1.31690801948308E-07  0.00000000000000E+00  0.00000000000000E+00
  0.00000000000000E+00  1.31690801948416E-07  0.00000000000000E+00
  0.00000000000000E+00  0.00000000000000E+00  1.31690801948416E-07
 Total energy (etotal) [Ha]= -2.09855631110210E+00

 Difference of energy with previous step (new-old):
           Absolute (Ha)=-5.62187E-07
           Relative     =-2.67892E-07

 At Broyd/MD step   4, gradients are converged : 
  max grad (force/stress) = 1.3169E-05 < tolmxf= 5.0000E-05 ha/bohr (free atoms)

================================================================================

 ----iterations are completed or convergence reached----

 Mean square residual over all n,k,spin=   1.3398E-12; max=  4.0935E-12
  -0.0833 -0.1667  0.0000    1  7.75837E-13 kpt; spin; max resid(k); each band:
  2.86E-13 7.76E-13 2.20E-14
  -0.0833 -0.3333  0.0000    1  8.29140E-13 kpt; spin; max resid(k); each band:
  6.84E-13 8.29E-13 3.15E-14
  -0.1667 -0.2500  0.0000    1  7.32848E-13 kpt; spin; max resid(k); each band:
  2.91E-13 7.33E-13 4.29E-13
  -0.0833 -0.2500  0.0833    1  1.75228E-12 kpt; spin; max resid(k); each band:
  1.24E-12 1.11E-12 1.75E-12
  -0.0833  0.5000  0.0000    1  2.29725E-12 kpt; spin; max resid(k); each band:
  1.20E-12 1.47E-12 2.30E-12
  -0.1667 -0.4167  0.0000    1  2.68412E-12 kpt; spin; max resid(k); each band:
  1.27E-12 1.45E-12 2.68E-12
  -0.0833 -0.4167  0.0833    1  3.25789E-12 kpt; spin; max resid(k); each band:
  1.35E-12 1.47E-12 3.26E-12
  -0.2500 -0.3333  0.0000    1  1.93881E-12 kpt; spin; max resid(k); each band:
  8.43E-13 7.61E-13 1.94E-12
  -0.1667 -0.3333  0.0833    1  4.09347E-12 kpt; spin; max resid(k); each band:
  1.09E-12 9.88E-13 4.09E-12
  -0.0833 -0.3333  0.1667    1  2.08564E-12 kpt; spin; max resid(k); each band:
  1.60E-12 1.33E-12 2.09E-12
  -0.0833  0.3333  0.0000    1  1.49953E-12 kpt; spin; max resid(k); each band:
  1.36E-12 1.50E-12 1.47E-12
  -0.1667  0.4167  0.0000    1  1.89687E-12 kpt; spin; max resid(k); each band:
  1.46E-12 1.81E-12 1.90E-12
  -0.2500  0.5000  0.0000    1  1.82722E-12 kpt; spin; max resid(k); each band:
  1.47E-12 1.62E-12 1.83E-12
  -0.1667  0.5000  0.0833    1  3.25002E-12 kpt; spin; max resid(k); each band:
  1.19E-12 1.53E-12 3.25E-12
  -0.3333 -0.4167  0.0000    1  1.20382E-12 kpt; spin; max resid(k); each band:
  1.06E-12 1.11E-12 1.20E-12
  -0.2500 -0.4167  0.0833    1  2.59568E-12 kpt; spin; max resid(k); each band:
  9.67E-13 7.60E-13 2.60E-12
  -0.1667 -0.4167  0.1667    1  3.00149E-12 kpt; spin; max resid(k); each band:
  1.15E-12 9.68E-13 3.00E-12
  -0.0833 -0.4167  0.2500    1  1.97755E-12 kpt; spin; max resid(k); each band:
  1.36E-12 1.48E-12 1.98E-12
  -0.0833  0.1667  0.0000    1  1.31318E-12 kpt; spin; max resid(k); each band:
  1.01E-12 1.03E-12 1.31E-12
  -0.1667  0.2500  0.0000    1  1.93564E-12 kpt; spin; max resid(k); each band:
  1.57E-12 1.33E-12 1.94E-12
  -0.2500  0.3333  0.0000    1  2.08243E-12 kpt; spin; max resid(k); each band:
  1.68E-12 1.40E-12 2.08E-12
  -0.3333  0.4167  0.0000    1  1.79701E-12 kpt; spin; max resid(k); each band:
  1.06E-12 1.43E-12 1.80E-12
  -0.4167  0.5000  0.0000    1  1.42250E-12 kpt; spin; max resid(k); each band:
  9.46E-13 1.42E-12 1.04E-12
  -0.3333  0.5000  0.0833    1  1.49714E-12 kpt; spin; max resid(k); each band:
  9.89E-13 1.36E-12 1.50E-12
  -0.2500  0.5000  0.1667    1  1.67645E-12 kpt; spin; max resid(k); each band:
  5.91E-13 7.16E-13 1.68E-12
  -0.0833  0.0000  0.0000    1  5.29438E-13 kpt; spin; max resid(k); each band:
  2.19E-13 3.32E-13 5.29E-13
  -0.2500  0.0000  0.0000    1  8.40144E-13 kpt; spin; max resid(k); each band:
  6.19E-13 8.40E-13 4.09E-13
  -0.4167  0.0000  0.0000    1  2.65996E-12 kpt; spin; max resid(k); each band:
  8.29E-13 8.58E-13 2.66E-12
 reduced coordinates (array xred) for    1 atoms
       0.000000000000      0.000000000000      0.000000000000
 rms dE/dt=  0.0000E+00; max dE/dt=  0.0000E+00; dE/dt below (all hartree)
    1       0.000000000000      0.000000000000      0.000000000000

 cartesian coordinates (angstrom) at end:
    1      0.00000000000000     0.00000000000000     0.00000000000000

 cartesian forces (hartree/bohr) at end:
    1     -0.00000000000000    -0.00000000000000    -0.00000000000000
 frms,max,avg= 0.0000000E+00 0.0000000E+00   0.000E+00  0.000E+00  0.000E+00 h/b

 cartesian forces (eV/Angstrom) at end:
    1     -0.00000000000000    -0.00000000000000    -0.00000000000000
 frms,max,avg= 0.0000000E+00 0.0000000E+00   0.000E+00  0.000E+00  0.000E+00 e/A
 length scales=  7.501452206066  7.501452206066  7.501452206066 bohr
              =  3.969597538777  3.969597538777  3.969597538777 angstroms
 prteigrs : about to open file tbase4_xo_DS3_EIG
 Fermi (or HOMO) energy (hartree) =   0.29140   Average Vxc (hartree)=  -0.34984
 Eigenvalues (hartree) for nkpt=  28  k points:
 kpt#   1, nband=  3, wtk=  0.02778, kpt= -0.0833 -0.1667  0.0000 (reduced coord)
  -0.10480   0.58782   0.66999
      occupation numbers for kpt#   1
   2.00000   0.00000   0.00000
 kpt#   2, nband=  3, wtk=  0.02778, kpt= -0.0833 -0.3333  0.0000 (reduced coord)
  -0.02921   0.35136   0.63869
      occupation numbers for kpt#   2
   2.00000   0.00008   0.00000
 kpt#   3, nband=  3, wtk=  0.02778, kpt= -0.1667 -0.2500  0.0000 (reduced coord)
  -0.06685   0.51925   0.60565
      occupation numbers for kpt#   3
   2.00000   0.00000   0.00000
 kpt#   4, nband=  3, wtk=  0.05556, kpt= -0.0833 -0.2500  0.0833 (reduced coord)
  -0.04799   0.43498   0.55074
      occupation numbers for kpt#   4
   2.00000   0.00027   0.00000
 kpt#   5, nband=  3, wtk=  0.02778, kpt= -0.0833  0.5000  0.0000 (reduced coord)
   0.10011   0.15606   0.63141
      occupation numbers for kpt#   5
   2.00000   2.00230   0.00000
 kpt#   6, nband=  3, wtk=  0.02778, kpt= -0.1667 -0.4167  0.0000 (reduced coord)
   0.02677   0.29828   0.56680
      occupation numbers for kpt#   6
   2.00000   0.61950   0.00000
 kpt#   7, nband=  3, wtk=  0.05556, kpt= -0.0833 -0.4167  0.0833 (reduced coord)
   0.06371   0.22746   0.54814
      occupation numbers for kpt#   7
   2.00000   2.14041   0.00000
 kpt#   8, nband=  3, wtk=  0.02778, kpt= -0.2500 -0.3333  0.0000 (reduced coord)
  -0.01050   0.46677   0.53295
      occupation numbers for kpt#   8
   2.00000   0.00001   0.00000
 kpt#   9, nband=  3, wtk=  0.05556, kpt= -0.1667 -0.3333  0.0833 (reduced coord)
   0.00816   0.38229   0.49915
      occupation numbers for kpt#   9
   2.00000   0.00522   0.00000
 kpt#  10, nband=  3, wtk=  0.05556, kpt= -0.0833 -0.3333  0.1667 (reduced coord)
   0.04529   0.31226   0.43371
      occupation numbers for kpt#  10
   2.00000   0.27044   0.00030
 kpt#  11, nband=  3, wtk=  0.02778, kpt= -0.0833  0.3333  0.0000 (reduced coord)
   0.00819   0.28100   0.59776
      occupation numbers for kpt#  11
   2.00000   1.20465   0.00000
 kpt#  12, nband=  3, wtk=  0.02778, kpt= -0.1667  0.4167  0.0000 (reduced coord)
   0.11826   0.17391   0.49895
      occupation numbers for kpt#  12
   2.00003   2.01079   0.00000
 kpt#  13, nband=  3, wtk=  0.02778, kpt= -0.2500  0.5000  0.0000 (reduced coord)
   0.10008   0.26247   0.42981
      occupation numbers for kpt#  13
   2.00000   1.78294   0.00043
 kpt#  14, nband=  3, wtk=  0.05556, kpt= -0.1667  0.5000  0.0833 (reduced coord)
   0.13611   0.19187   0.46326
      occupation numbers for kpt#  14
   2.00029   2.03740   0.00001
 kpt#  15, nband=  3, wtk=  0.02778, kpt= -0.3333 -0.4167  0.0000 (reduced coord)
   0.06346   0.39285   0.43333
      occupation numbers for kpt#  15
   2.00000   0.00419   0.00031
 kpt#  16, nband=  3, wtk=  0.05556, kpt= -0.2500 -0.4167  0.0833 (reduced coord)
   0.08183   0.34656   0.41095
      occupation numbers for kpt#  16
   2.00000   0.00191   0.00174
 kpt#  17, nband=  3, wtk=  0.05556, kpt= -0.1667 -0.4167  0.1667 (reduced coord)
   0.11832   0.27681   0.39648
      occupation numbers for kpt#  17
   2.00003   1.35023   0.00367
 kpt#  18, nband=  3, wtk=  0.05556, kpt= -0.0833 -0.4167  0.2500 (reduced coord)
   0.17213   0.22409   0.34604
      occupation numbers for kpt#  18
   2.00938   2.13519   0.00231
 kpt#  19, nband=  3, wtk=  0.02778, kpt= -0.0833  0.1667  0.0000 (reduced coord)
  -0.08580   0.50433   0.61515
      occupation numbers for kpt#  19
   2.00000   0.00000   0.00000
 kpt#  20, nband=  3, wtk=  0.02778, kpt= -0.1667  0.2500  0.0000 (reduced coord)
  -0.01046   0.36513   0.48540
      occupation numbers for kpt#  20
[...]
                      -3.75000000E-01  0.00000000E+00  0.00000000E+00
              kpt3    -8.33333333E-02 -1.66666667E-01  0.00000000E+00
                      -8.33333333E-02 -3.33333333E-01  0.00000000E+00
                      -1.66666667E-01 -2.50000000E-01  0.00000000E+00
                      -8.33333333E-02 -2.50000000E-01  8.33333333E-02
                      -8.33333333E-02  5.00000000E-01  0.00000000E+00
                      -1.66666667E-01 -4.16666667E-01  0.00000000E+00
                      -8.33333333E-02 -4.16666667E-01  8.33333333E-02
                      -2.50000000E-01 -3.33333333E-01  0.00000000E+00
                      -1.66666667E-01 -3.33333333E-01  8.33333333E-02
                      -8.33333333E-02 -3.33333333E-01  1.66666667E-01
                      -8.33333333E-02  3.33333333E-01  0.00000000E+00
                      -1.66666667E-01  4.16666667E-01  0.00000000E+00
                      -2.50000000E-01  5.00000000E-01  0.00000000E+00
                      -1.66666667E-01  5.00000000E-01  8.33333333E-02
                      -3.33333333E-01 -4.16666667E-01  0.00000000E+00
                      -2.50000000E-01 -4.16666667E-01  8.33333333E-02
                      -1.66666667E-01 -4.16666667E-01  1.66666667E-01
                      -8.33333333E-02 -4.16666667E-01  2.50000000E-01
                      -8.33333333E-02  1.66666667E-01  0.00000000E+00
                      -1.66666667E-01  2.50000000E-01  0.00000000E+00
                      -2.50000000E-01  3.33333333E-01  0.00000000E+00
                      -3.33333333E-01  4.16666667E-01  0.00000000E+00
                      -4.16666667E-01  5.00000000E-01  0.00000000E+00
                      -3.33333333E-01  5.00000000E-01  8.33333333E-02
                      -2.50000000E-01  5.00000000E-01  1.66666667E-01
                      -8.33333333E-02  0.00000000E+00  0.00000000E+00
                      -2.50000000E-01  0.00000000E+00  0.00000000E+00
                      -4.16666667E-01  0.00000000E+00  0.00000000E+00
              kpt4    -6.25000000E-02 -1.25000000E-01  0.00000000E+00
                      -6.25000000E-02 -2.50000000E-01  0.00000000E+00
                      -1.25000000E-01 -1.87500000E-01  0.00000000E+00
                      -6.25000000E-02 -1.87500000E-01  6.25000000E-02
                      -6.25000000E-02 -3.75000000E-01  0.00000000E+00
                      -1.25000000E-01 -3.12500000E-01  0.00000000E+00
                      -6.25000000E-02 -3.12500000E-01  6.25000000E-02
                      -1.87500000E-01 -2.50000000E-01  0.00000000E+00
                      -1.25000000E-01 -2.50000000E-01  6.25000000E-02
                      -6.25000000E-02 -2.50000000E-01  1.25000000E-01
                      -6.25000000E-02  5.00000000E-01  0.00000000E+00
                      -1.25000000E-01 -4.37500000E-01  0.00000000E+00
                      -6.25000000E-02 -4.37500000E-01  6.25000000E-02
                      -1.87500000E-01 -3.75000000E-01  0.00000000E+00
                      -1.25000000E-01 -3.75000000E-01  6.25000000E-02
                      -6.25000000E-02 -3.75000000E-01  1.25000000E-01
                      -2.50000000E-01 -3.12500000E-01  0.00000000E+00
                      -1.87500000E-01 -3.12500000E-01  6.25000000E-02
                      -1.25000000E-01 -3.12500000E-01  1.25000000E-01
                      -6.25000000E-02 -3.12500000E-01  1.87500000E-01
                      -6.25000000E-02  3.75000000E-01  0.00000000E+00
                      -1.25000000E-01  4.37500000E-01  0.00000000E+00
                      -1.87500000E-01  5.00000000E-01  0.00000000E+00
                      -1.25000000E-01  5.00000000E-01  6.25000000E-02
                      -2.50000000E-01 -4.37500000E-01  0.00000000E+00
                      -1.87500000E-01 -4.37500000E-01  6.25000000E-02
                      -1.25000000E-01 -4.37500000E-01  1.25000000E-01
                      -6.25000000E-02 -4.37500000E-01  1.87500000E-01
                      -3.12500000E-01 -3.75000000E-01  0.00000000E+00
                      -2.50000000E-01 -3.75000000E-01  6.25000000E-02
                      -1.87500000E-01 -3.75000000E-01  1.25000000E-01
                      -1.25000000E-01 -3.75000000E-01  1.87500000E-01
                      -6.25000000E-02 -3.75000000E-01  2.50000000E-01
                      -6.25000000E-02  2.50000000E-01  0.00000000E+00
                      -1.25000000E-01  3.12500000E-01  0.00000000E+00
                      -1.87500000E-01  3.75000000E-01  0.00000000E+00
                      -2.50000000E-01  4.37500000E-01  0.00000000E+00
                      -3.12500000E-01  5.00000000E-01  0.00000000E+00
                      -2.50000000E-01  5.00000000E-01  6.25000000E-02
                      -1.87500000E-01  5.00000000E-01  1.25000000E-01
                      -3.75000000E-01 -4.37500000E-01  0.00000000E+00
                      -3.12500000E-01 -4.37500000E-01  6.25000000E-02
                      -2.50000000E-01 -4.37500000E-01  1.25000000E-01
                      -1.87500000E-01 -4.37500000E-01  1.87500000E-01
                      -1.25000000E-01 -4.37500000E-01  2.50000000E-01
                      -6.25000000E-02 -4.37500000E-01  3.12500000E-01
                      -6.25000000E-02  1.25000000E-01  0.00000000E+00
                      -1.25000000E-01  1.87500000E-01  0.00000000E+00
                      -1.87500000E-01  2.50000000E-01  0.00000000E+00
                      -2.50000000E-01  3.12500000E-01  0.00000000E+00
                       outvar_i_n : Printing only first  50 k-points.
         kptrlatt1       2   -2    2     -2    2    2     -2   -2    2
         kptrlatt2       4   -4    4     -4    4    4     -4   -4    4
         kptrlatt3       6   -6    6     -6    6    6     -6   -6    6
         kptrlatt4       8   -8    8     -8    8    8     -8   -8    8
          kptrlen1     1.52000000E+01
          kptrlen2     3.04000000E+01
          kptrlen3     4.56000000E+01
          kptrlen4     6.08000000E+01
P           mkmem1          2
P           mkmem2         10
P           mkmem3         28
P           mkmem4         60
            natom           1
            nband1          3
            nband2          3
            nband3          3
            nband4          3
           ndtset           4
            ngfft          15      15      15
             nkpt1          2
             nkpt2         10
             nkpt3         28
             nkpt4         60
            nstep          10
             nsym          48
            ntime          10
           ntypat           1
              occ1     2.000029  1.333066  0.000138
                       2.000000  0.000299  0.000000
              occ2     2.000000  0.000000  0.000000
                       2.000001  2.013008  0.000000
                       2.000000  0.001757  0.000000
                       2.000000  0.741378  0.000014
                       2.000000  0.004856  0.000000
                       2.000241  2.108516  0.005003
                       2.000207  0.461977  0.004770
                       2.010352  1.959840  0.003267
                       2.000000  0.000000  0.000000
                       2.000000  1.909876  0.000000
              occ3     2.000000  0.000000  0.000000
                       2.000000  0.000076  0.000000
                       2.000000  0.000000  0.000000
                       2.000000  0.000270  0.000000
                       2.000003  2.002301  0.000000
                       2.000000  0.619504  0.000000
                       2.000000  2.140408  0.000000
                       2.000000  0.000009  0.000000
                       2.000000  0.005221  0.000000
                       2.000000  0.270437  0.000303
                       2.000000  1.204647  0.000000
                       2.000034  2.010794  0.000000
                       2.000003  1.782942  0.000427
                       2.000290  2.037405  0.000013
                       2.000000  0.004192  0.000313
                       2.000000  0.001911  0.001739
                       2.000034  1.350230  0.003674
                       2.009381  2.135193  0.002308
                       2.000000  0.000000  0.000000
                       2.000000  0.002966  0.000001
                       2.000003  1.858287  0.005239
                       2.027794  2.090086  0.288540
                       2.001522  1.485641  0.001306
                       2.007629  0.918288  0.041068
                       2.074312  1.873143  0.084732
                       2.000000  0.000000  0.000000
                       2.000000  0.000858  0.000000
                       2.000000  2.091332  0.000000
              occ4     2.000000  0.000000  0.000000
                       2.000000  0.000040  0.000000
                       2.000000  0.000000  0.000000
                       2.000000  0.000000  0.000000
                       2.000000  0.976470  0.000000
                       2.000000  0.002482  0.000000
                       2.000000  0.002065  0.000000
                       2.000000  0.000000  0.000000
                       2.000000  0.000007  0.000000
                       2.000000  0.001851  0.000000
                       2.000005  2.000918  0.000000
                       2.000000  2.056486  0.000000
                       2.000000  2.050328  0.000000
                       2.000000  0.002995  0.000000
                       2.000000  0.394505  0.000000
                       2.000000  1.911615  0.000000
                       2.000000  0.000000  0.000000
                       2.000000  0.000453  0.000000
                       2.000000  0.004290  0.000008
                       2.000000  0.133700  0.000900
                       2.000000  2.129035  0.000000
                       2.000020  2.002500  0.000000
                       2.000001  2.116147  0.000000
                       2.000073  2.006224  0.000000
                       2.000000  0.025504  0.000014
                       2.000000  1.364176  0.000001
                       2.000005  2.139364  0.000005
                       2.000738  2.027307  0.000286
                       2.000000  0.000144  0.000009
                       2.000000  0.003300  0.000051
                       2.000000  0.009769  0.000250
                       2.000001  0.847794  0.004520
                       2.000257  2.001589  0.000079
                       2.000000  0.003790  0.000000
                       2.000000  0.665436  0.000000
                       2.000001  2.114475  0.000012
                       2.001937  2.051091  0.002442
                       2.000020  0.234191  0.003328
                       2.000241  1.921878  0.005061
                       2.004911  2.081077  0.001598
                       2.000001  0.004156  0.000090
                       2.000005  0.000012  0.005235
                       2.000073  0.143861  0.004684
                       2.002043  1.534537  0.003416
                       2.043962  2.141110  0.047741
                       2.060687  2.079652  0.510945
                       2.000000  0.000000  0.000000
                       2.000000  0.000022  0.000000
                       2.000000  0.001583  0.000021
                       2.000000  1.193125  0.005248
                       prtocc : prtvol=0, do not print more k-points.
           occopt           4
          optcell           1
            rprim      0.0000000000E+00  5.0000000000E-01  5.0000000000E-01
                       5.0000000000E-01  0.0000000000E+00  5.0000000000E-01
                       5.0000000000E-01  5.0000000000E-01  0.0000000000E+00
           shiftk      5.00000000E-01  5.00000000E-01  5.00000000E-01
          spgroup         225
           strten1     2.1366973265E-08  2.1366973264E-08  2.1366973265E-08
                       0.0000000000E+00  0.0000000000E+00  0.0000000000E+00
           strten2     1.4604033442E-09  1.4604033440E-09  1.4604033439E-09
                       0.0000000000E+00  0.0000000000E+00  0.0000000000E+00
           strten3     1.3169080195E-07  1.3169080195E-07  1.3169080195E-07
                       0.0000000000E+00  0.0000000000E+00  0.0000000000E+00
           strten4     1.9929835244E-07  1.9929835244E-07  1.9929835244E-07
                       0.0000000000E+00  0.0000000000E+00  0.0000000000E+00
           symrel      1  0  0   0  1  0   0  0  1      -1  0  0   0 -1  0   0  0 -1
                       0 -1  1   0 -1  0   1 -1  0       0  1 -1   0  1  0  -1  1  0
                      -1  0  0  -1  0  1  -1  1  0       1  0  0   1  0 -1   1 -1  0
                       0  1 -1   1  0 -1   0  0 -1       0 -1  1  -1  0  1   0  0  1
                      -1  0  0  -1  1  0  -1  0  1       1  0  0   1 -1  0   1  0 -1
                       0 -1  1   1 -1  0   0 -1  0       0  1 -1  -1  1  0   0  1  0
                       1  0  0   0  0  1   0  1  0      -1  0  0   0  0 -1   0 -1  0
                       0  1 -1   0  0 -1   1  0 -1       0 -1  1   0  0  1  -1  0  1
                      -1  0  1  -1  1  0  -1  0  0       1  0 -1   1 -1  0   1  0  0
                       0 -1  0   1 -1  0   0 -1  1       0  1  0  -1  1  0   0  1 -1
                       1  0 -1   0  0 -1   0  1 -1      -1  0  1   0  0  1   0 -1  1
                       0  1  0   0  0  1   1  0  0       0 -1  0   0  0 -1  -1  0  0
                       1  0 -1   0  1 -1   0  0 -1      -1  0  1   0 -1  1   0  0  1
                       0 -1  0   0 -1  1   1 -1  0       0  1  0   0  1 -1  -1  1  0
                      -1  0  1  -1  0  0  -1  1  0       1  0 -1   1  0  0   1 -1  0
                       0  1  0   1  0  0   0  0  1       0 -1  0  -1  0  0   0  0 -1
                       0  0 -1   0  1 -1   1  0 -1       0  0  1   0 -1  1  -1  0  1
                       1 -1  0   0 -1  1   0 -1  0      -1  1  0   0  1 -1   0  1  0
                       0  0  1   1  0  0   0  1  0       0  0 -1  -1  0  0   0 -1  0
                      -1  1  0  -1  0  0  -1  0  1       1 -1  0   1  0  0   1  0 -1
                       0  0  1   0  1  0   1  0  0       0  0 -1   0 -1  0  -1  0  0
                       1 -1  0   0 -1  0   0 -1  1      -1  1  0   0  1  0   0  1 -1
                       0  0 -1   1  0 -1   0  1 -1       0  0  1  -1  0  1   0 -1  1
                      -1  1  0  -1  0  1  -1  0  0       1 -1  0   1  0 -1   1  0  0
           toldfe      1.00000000E-06 Hartree
           tsmear      5.00000000E-02 Hartree
            typat      1
              wtk1       0.75000    0.25000
              wtk2       0.09375    0.09375    0.09375    0.18750    0.09375    0.09375
                         0.09375    0.18750    0.03125    0.03125
              wtk3       0.02778    0.02778    0.02778    0.05556    0.02778    0.02778
                         0.05556    0.02778    0.05556    0.05556    0.02778    0.02778
                         0.02778    0.05556    0.02778    0.05556    0.05556    0.05556
                         0.02778    0.02778    0.02778    0.02778    0.02778    0.05556
                         0.05556    0.00926    0.00926    0.00926
              wtk4       0.01172    0.01172    0.01172    0.02344    0.01172    0.01172
                         0.02344    0.01172    0.02344    0.02344    0.01172    0.01172
                         0.02344    0.01172    0.02344    0.02344    0.01172    0.02344
                         0.02344    0.02344    0.01172    0.01172    0.01172    0.02344
                         0.01172    0.02344    0.02344    0.02344    0.01172    0.02344
                         0.02344    0.02344    0.02344    0.01172    0.01172    0.01172
                         0.01172    0.01172    0.02344    0.02344    0.01172    0.02344
                         0.02344    0.02344    0.02344    0.02344    0.01172    0.01172
                         0.01172    0.01172
                       outvars : Printing only first  50 k-points.
            znucl       13.00000

================================================================================


- Timing analysis has been suppressed with timopt=0



================================================================================

 Suggested references for the acknowledgment of ABINIT usage.

 The users of ABINIT have little formal obligations with respect to the ABINIT group
 (those specified in the GNU General Public License, http://www.gnu.org/copyleft/gpl.txt).
 However, it is common practice in the scientific literature,
 to acknowledge the efforts of people that have made the research possible.
 In this spirit, please find below suggested citations of work written by ABINIT developers,
 corresponding to implementations inside of ABINIT that you have used in the present run.
 Note also that it will be of great value to readers of publications presenting these results,
 to read papers enabling them to understand the theoretical formalism and details
 of the ABINIT implementation.
 For information on why they are suggested, see also http://www.abinit.org/about/?text=acknowledgments.

 [1] Ab initio pseudopotentials for electronic structure calculations of poly-atomic systems, 
 using density-functional theory.
 M. Fuchs, M. Scheffler, Comput. Phys. Commun. 119, 67 (1999).
 Comment : Some pseudopotential generated using the FHI code were used.

 [2] ABINIT : First-principles approach of materials and nanosystem properties.
 X. Gonze, B. Amadon, P.-M. Anglade, J.-M. Beuken, F. Bottin, P. Boulanger, F. Bruneval,
 D. Caliste, R. Caracas, M. Cote, T. Deutsch, L. Genovese, Ph. Ghosez, M. Giantomassi
 S. Goedecker, D.R. Hamann, P. Hermet, F. Jollet, G. Jomard, S. Leroux, M. Mancini, S. Mazevet,
 M.J.T. Oliveira, G. Onida, Y. Pouillon, T. Rangel, G.-M. Rignanese, D. Sangalli, R. Shaltaf,
 M. Torrent, M.J. Verstraete, G. Zerah, J.W. Zwanziger
 Computer Phys. Comm. 180, 2582-2615 (2009).
 Comment : the third generic paper describing the ABINIT project.
 Note that a version of this paper, that is not formatted for Computer Phys. Comm. 
 is available at http://www.abinit.org/about/ABINIT_CPC_v10.pdf .
 The licence allows the authors to put it on the Web.

 [3] A brief introduction to the ABINIT software package.
 X. Gonze, G.-M. Rignanese, M. Verstraete, J.-M. Beuken, Y. Pouillon, R. Caracas, F. Jollet,
 M. Torrent, G. Zerah, M. Mikami, Ph. Ghosez, M. Veithen, J.-Y. Raty, V. Olevano, F. Bruneval,
 L. Reining, R. Godby, G. Onida, D.R. Hamann, and D.C. Allan.
 Z. Kristallogr. 220, 558-562 (2005).
 Comment : the second generic paper describing the ABINIT project. Note that this paper
 should be cited especially if you are using the GW part of ABINIT, as several authors
 of this part are not in the list of authors of the first or third paper.
 The .pdf of the latter paper is available at http://www.abinit.org/about/zfk_0505-06_558-562.pdf.
 Note that it should not redistributed (Copyright by Oldenburg Wissenshaftverlag,
 the licence allows the authors to put it on the Web).


 And optionally :

 [4] First-principles computation of material properties : the ABINIT software project. 
 X. Gonze, J.-M. Beuken, R. Caracas, F. Detraux, M. Fuchs, G.-M. Rignanese, L. Sindic,
 M. Verstraete, G. Zerah, F. Jollet, M. Torrent, A. Roy, M. Mikami, Ph. Ghosez, J.-Y. Raty, D.C. Allan.
 Computational Materials Science 25, 478-492 (2002). http://dx.doi.org/10.1016/S0927-0256(02)00325-7
 Comment : the original paper describing the ABINIT project.

 [5] Fast radix 2, 3, 4 and 5 kernels for Fast Fourier Transformations
 on computers with overlapping multiply-add instructions.
 S. Goedecker, SIAM J. on Scientific Computing 18, 1605 (1997).
-
- Proc.   0 individual time (sec): cpu=          9.6  wall=         11.4

================================================================================

 Calculation completed.
.Delivered   11 WARNINGs and  29 COMMENTs to log file.
+Overall time at end (sec) : cpu=          9.6  wall=         11.4
